150770	New version: xavidop.cxcli 1.197.1	xavidop:cxcli-1.197.1	OPEN	2024-04-24T09:13:10Z
150768	New version: Redisant.RedisantToolbox version 1.0.7.0	SpecterShell:Redisant.RedisantToolbox-1.0.7.0-333720079	OPEN	2024-04-24T08:12:42Z
150767	New version: Huawei.IdeaShare version 7.02.1.10	SpecterShell:Huawei.IdeaShare-7.02.1.10-458718672	OPEN	2024-04-24T08:11:42Z
150766	New version: Bosyun.BoardMix.CN version 1.6.4	SpecterShell:Bosyun.BoardMix.CN-1.6.4-334204676	OPEN	2024-04-24T08:11:20Z
150764	New version: Microsoft.Azure.QuickReview version 1.1.1	cmendible:Microsoft.Azure.QuickReview-1.1.1-07713ce0-a36e-4ebd-b5f5-00ecf7aff64a	OPEN	2024-04-24T07:15:09Z
150763	New version: EclipseAdoptium.Temurin.21.JDK version 21.0.3.9	andhet:EclipseAdoptium.Temurin.21.JDK-21.0.3.9-CF16D08DFB3A47139208B69216935FD5	OPEN	2024-04-24T07:13:41Z
150762	New version: EclipseAdoptium.Temurin.17.JDK version 17.0.11.9	andhet:EclipseAdoptium.Temurin.17.JDK-17.0.11.9-838E316CFD004044AA9C028D2D5EAFD3	OPEN	2024-04-24T07:10:04Z
150761	New version: EclipseAdoptium.Temurin.11.JDK version 11.0.23.9	andhet:EclipseAdoptium.Temurin.11.JDK-11.0.23.9-8AE470F5070D478FB1467D62EED9E1E3	OPEN	2024-04-24T07:06:47Z
150760	Microsoft.VisualStudioCode.Insiders.CLI_v1.89.0 cli	lszomoru:cliMicrosoft.VisualStudioCode.Insiders.CLI_v1.89.0	OPEN	2024-04-24T07:06:10Z
150756	New version: Toit.Jaguar version 1.34.0	LeonGungadinMogensen:Toit.Jaguar-1.34.0-b573b490-620f-4f18-a9ef-772f77e64e11	OPEN	2024-04-24T05:37:24Z
150755	IsWiX.IsWiX version 5.0.53.0	vedantmgoyal9:IsWiX.IsWiX-5.0.53.0-5924d25f-ef87-49c9-afef-6439577c25fc	OPEN	2024-04-24T05:27:03Z
150754	Migrate package: Proton.ProtonVPN version 3.2.11	Dragon1573:issues/150579/3.2.11	OPEN	2024-04-24T04:59:05Z
150753	New version: Alex313031.Thorium.AVX2 version 123.0.6312.133	SpecterShell:Alex313031.Thorium.AVX2-123.0.6312.133-450149760	OPEN	2024-04-24T04:09:13Z
150752	New version: NetEase.Lingxi version 1.39.2	SpecterShell:NetEase.Lingxi-1.39.2-2017234064	OPEN	2024-04-24T03:19:18Z
150751	New version: OddLab.Cubox version 0.2.1	SpecterShell:OddLab.Cubox-0.2.1-1201661406	OPEN	2024-04-24T03:12:33Z
150750	New version: KristenMcWilliam.Nyrna version 2.20.0	vvirtues:KristenMcWilliam.Nyrna-2.20.0-215AB0DBE5FF4024B6314E1E1656428A	OPEN	2024-04-24T02:13:05Z
150749	New version: t1m0thyj.WinDynamicDesktop version 5.5.0	t1m0thyj:t1m0thyj.WinDynamicDesktop-5.5.0-B88D0D7C87E7272493D009E135AA47BBBBF809CC	OPEN	2024-04-24T01:38:28Z
150748	Automatic deletion of Nlitesoft.NTLite 2024.4.9910.0	wingetbot:AutomaticUpdate_7dc016ba-9a14-42e1-a7ff-56099bfb0d94	OPEN	2024-04-24T01:36:45Z
150747	Automatic update of Nlitesoft.NTLite from 2024.4.9910.0 to 2024.4.9913.0	wingetbot:AutomaticUpdate_a961bc7d-99a7-4c45-9e85-73045d8924b3	OPEN	2024-04-24T01:32:12Z
150746	WeMod.WeMod.Beta version 8.19.0-beta00	vedantmgoyal9:WeMod.WeMod.Beta-8.19.0-beta00-18d44597-a970-48ed-a3ef-cf1230f9424a	OPEN	2024-04-24T01:28:51Z
150745	SmartSoft.SmartFTP version 10.0.3223.0	vedantmgoyal9:SmartSoft.SmartFTP-10.0.3223.0-0a09e5f7-e0fa-4015-b015-5497ff7785cb	OPEN	2024-04-24T01:28:38Z
150744	HearthSim.HearthstoneDeckTracker version 1.26.1	vedantmgoyal9:HearthSim.HearthstoneDeckTracker-1.26.1-07b7cd82-8b77-4fdc-9ae9-d7a1b59377e6	OPEN	2024-04-24T01:28:11Z
150743	New version: StandardNotes.StandardNotes version 3.193.10	Exorcism0666:StandardNotes.StandardNotes-3.193.10-19368EB12C754722A4FAB8FA15F0369A	OPEN	2024-04-24T01:23:37Z
150742	New version: Balena.BalenaCLI version 18.2.1	Exorcism0666:Balena.BalenaCLI-18.2.1-E1CB1ABADAA34B30AF2C7A3DCE662E16	OPEN	2024-04-24T01:23:29Z
150741	New version: Fly-io.flyctl version 0.2.41	Exorcism0666:Fly-io.flyctl-0.2.41-1701C9E504B54BA5ACA4B49A1375A030	OPEN	2024-04-24T01:23:25Z
150740	New version: chylex.DiscordHistoryTracker version 42.0	Exorcism0666:chylex.DiscordHistoryTracker-42.0-5439420F2C0C4CDFA716321DBAF6BBCF	OPEN	2024-04-24T01:23:20Z
150739	Automatic update of Nlitesoft.NTLite from 2024.4.9880.0 to 2024.4.9913.0	wingetbot:AutomaticUpdate_241b18ca-0986-4cd9-a23b-dd3e472e65a7	OPEN	2024-04-24T01:22:15Z
150738	Automatic update of SoftPerfect.SoftPerfectNetworkScanner 8.2.1	wingetbot:AutomaticUpdate_000e1b89-7aef-4431-9305-575ec784364f	OPEN	2024-04-24T01:02:34Z
150737	Automatic update of Neovim.Neovim.Nightly 0.10.0	wingetbot:AutomaticUpdate_756385ee-0927-43b8-8053-af0ed38ef145	OPEN	2024-04-24T01:02:30Z
150736	New version: CologneCodeCompany.XYplorer version 25.90.0100	The-Running-Dev:CologneCodeCompany.XYplorer-25.90.0100-b7132e1f-73af-4a3a-94b9-0312fcb592ca	OPEN	2024-04-24T01:02:02Z
150735	New Version: GodotEngine.GodotEngine version 4.2.2	og-mrk:new-manifest-version/GodotEngine.GodotEngine-version4.2.2	OPEN	2024-04-24T00:59:43Z
150733	Remove version: TeamViewer.TeamViewer version 15.53.6	PckgrBot:TeamViewer.TeamViewer-15.53.6-B606FC11E14A48C7A19C212C54605244	OPEN	2024-04-24T00:34:31Z
150732	Remove version: TeamViewer.TeamViewer.Host version 15.53.6	PckgrBot:TeamViewer.TeamViewer.Host-15.53.6-7A39A4612BEA43D09798F2665C18D378	OPEN	2024-04-24T00:33:39Z
150731	New version: LLVM.LLVM version 18.1.4	SpecterShell:LLVM.LLVM-18.1.4-1257912317	OPEN	2024-04-24T00:27:37Z
150730	SpikeHD.swerve version 1.1.1	SpikeHD:swerve	OPEN	2024-04-24T00:23:58Z
150729	New version: vim.vim.nightly version 9.1.0368	vim:vim.vim.nightly-9.1.0368-49D596E49A3924267B8F26F93ABBB9C69E7D20A8	OPEN	2024-04-23T23:49:15Z
150719	Modify: JetBrains.CLion.EAP version 241.14494.154	SpecterShell:JetBrains.CLion.EAP-241.14494.154-Modify	OPEN	2024-04-23T23:10:41Z
150717	Modify: JetBrains.CLion version 2024.1	SpecterShell:JetBrains.CLion-2024.1-Modify	OPEN	2024-04-23T23:10:14Z
150703	Modify: JetBrains.Rider.EAP version 241.14494.107	SpecterShell:JetBrains.Rider.EAP-241.14494.107-Modify	OPEN	2024-04-23T23:02:34Z
150701	Modify: JetBrains.Rider version 2024.1.1	SpecterShell:JetBrains.Rider-2024.1.1-Modify	OPEN	2024-04-23T23:01:58Z
150652	Microsoft.VisualStudio.2022.Community.Preview version 17.10.0	edwardskrod:autogenerated/Microsoft.VisualStudio.2022.Community.Preview/9530002f-af71-4807-bc4a-4c43fd366e35	OPEN	2024-04-23T17:19:46Z
150651	Microsoft.VisualStudio.2022.Professional.Preview version 17.10.0	edwardskrod:autogenerated/Microsoft.VisualStudio.2022.Professional.Preview/ce9a0619-973c-4a0c-8313-3ee257fe863f	OPEN	2024-04-23T17:19:36Z
150650	Microsoft.VisualStudio.2022.Enterprise.Preview version 17.10.0	edwardskrod:autogenerated/Microsoft.VisualStudio.2022.Enterprise.Preview/52480649-2995-4212-b14d-b954b26f684a	OPEN	2024-04-23T17:19:26Z
150646	KirillOsenkov.MSBuildStructuredLogViewer version .2.2.235	vedantmgoyal9:KirillOsenkov.MSBuildStructuredLogViewer-.2.2.235-cbfdf998-5c19-440c-9b08-a2d32bb95a30	DRAFT	2024-04-23T16:30:09Z
150642	New version: Cloudflare.cloudflared version 2024.4.1	coolplaylinbot:Cloudflare.cloudflared-2024.4.1-4F429636C01E4756BD8734772923305C	OPEN	2024-04-23T15:12:12Z
150640	New version: version-fox.vfox version 0.4.1	docentYT:version-fox.vfox-0.4.1-C188578DAD724774B0B1E7E12BD4EE32	OPEN	2024-04-23T14:39:40Z
150633	Update: Google.AndroidStudio version 2023.2.1.23	aisgbnok:update-Google.AndroidStudio-2023.2.1.23	DRAFT	2024-04-23T14:10:28Z
150630	New version: TheBrowserCompany.Arc version 0.19.1.23719	Exorcism0666:TheBrowserCompany.Arc-0.19.1.23719-1654064350	OPEN	2024-04-23T13:22:12Z
150629	New version: Google.AndroidStudio version 2023.2.1.25	aisgbnok:update-Google.AndroidStudio-2023.2.1.25	DRAFT	2024-04-23T13:18:47Z
150616	purocean.YankNote version 3.68.0	vedantmgoyal9:purocean.YankNote-3.68.0-cf685409-80a7-4f0c-b316-89cd34494b06	OPEN	2024-04-23T11:23:17Z
150602	New version: Liberica JDK8 8.0.412.9	PakhomGolynga:8_8.0.412.9	OPEN	2024-04-23T08:32:56Z
150600	New version: Liberica JDK17 17.0.11.10	PakhomGolynga:17_17.0.11.10	OPEN	2024-04-23T08:32:24Z
150599	New version: Liberica JDK17-Full 17.0.11.10	PakhomGolynga:17-Full_17.0.11.10	OPEN	2024-04-23T08:31:58Z
150598	New version: Liberica JDK21-Full 21.0.3.10	PakhomGolynga:21-Full_21.0.3.10	OPEN	2024-04-23T08:31:42Z
150596	New version: Liberica JDK11-Full 11.0.23.10	PakhomGolynga:11-Full_11.0.23.10	OPEN	2024-04-23T08:30:40Z
150595	New version: Liberica JDK8-Full 8.0.412.9	PakhomGolynga:8-Full_8.0.412.9	OPEN	2024-04-23T08:30:17Z
150593	New version: Liberica JDK21 21.0.3.10	PakhomGolynga:21_21.0.3.10	OPEN	2024-04-23T08:29:07Z
150578	Automatic deletion of Nlitesoft.NTLite 2024.4.9880.0	wingetbot:AutomaticUpdate_b447c714-fc43-4498-affd-a7414ed92fcf	OPEN	2024-04-23T01:36:09Z
150574	Define machine scope for SonicWALL.NetExtender	rhj-kinsley:patch-1	OPEN	2024-04-23T01:26:32Z
150570	New version: staniel359.muffon version 2.0.3	Exorcism0666:staniel359.muffon-2.0.3-AB013CB350614821B4C4D30CA4A3BB63	OPEN	2024-04-23T01:22:47Z
150563	Automatic update of IDMComputerSolutions,Inc.UEStudio 23.2.41	wingetbot:AutomaticUpdate_e29aa386-bcd6-4d0b-86c3-a565288e52c6	OPEN	2024-04-22T23:42:35Z
150543	Automatic update of Tonec.InternetDownloadManager from 6.42.7 to 6.42.8.1	wingetbot:AutomaticUpdate_1b69fd79-57ca-4a8f-a3e1-5bcff7432c5c	OPEN	2024-04-22T21:21:59Z
150536	Automatic deletion of PerfectWorld.PerfectWorldArena 1.0.24041812	wingetbot:AutomaticUpdate_c6aae251-9909-4bb3-9d63-758067f59cbc	OPEN	2024-04-22T20:55:35Z
150526	New package: SpanishGovernment.InstaladorDNIe version 1.1.0	antonioalopezfernandez:SpanishGovernment.InstaladorDNIe-1.1.0-A75190E131EE4FB58D6CDBBFDD30435D	OPEN	2024-04-22T19:12:32Z
150504	New package: FilesCommunity.Files version 3.3.0.0	vikingnope:Files-Community.Files-3.3.0.0-31533D8937354C5D8BF3D259CC44BFB3	OPEN	2024-04-22T15:22:51Z
150503	New version: LinwoodCloud.Butterfly.Nightly version 2.1.0-rc.0	LinwoodDev:LinwoodCloud.Butterfly.Nightly-2.1.0-rc.0-08A1BA9D5C341176BD95C215F3311F4B12863050	OPEN	2024-04-22T15:18:18Z
150496	New version: TheBrowserCompany.Arc version 0.19.0.23547	Exorcism0666:TheBrowserCompany.Arc-0.19.0.23547-677137552	OPEN	2024-04-22T14:21:01Z
150494	New version: aquaproj.aqua 2.27.2	suzuki-shunsuke:aqua-2.27.2	OPEN	2024-04-22T13:34:39Z
150486	New version: JetBrains.QodanaCLI version 2024.1.1	qodana-bot:JetBrains.QodanaCLI-2024.1.1-D5E8EAAB687C5AEADCFE2788C1FA5A45	OPEN	2024-04-22T12:17:17Z
150481	New version: Tencent.QQ version 9.7.23.240422	SpecterShell:Tencent.QQ-9.7.23.240422-735433769	OPEN	2024-04-22T09:12:27Z
150452	Remove: Tableau.PrepBuilder version 23.3.30378	coolplaylinbot:Tableau.PrepBuilder-23.3.30378-37F73D3F64F4C7C29D28934DC546A020A0301EC2	OPEN	2024-04-22T04:49:45Z
150451	Remove: Tableau.Reader version 23.3.345	coolplaylinbot:Tableau.Reader-23.3.345-50E56E2E79066A3744B8E617975C824142862F93	OPEN	2024-04-22T04:49:44Z
150450	Remove: Tableau.Public version 23.3.345	coolplaylinbot:Tableau.Public-23.3.345-70DB4778194B6085798E3B455C821DDE2335171A	OPEN	2024-04-22T04:49:30Z
150377	New package: Datev.Sicherheitspaketcompact version 7.66	HRA42:Datev.Sicherheitspaketcompact-7.66-9699747d-63f7-4c3f-904d-2ea98c5934cc	OPEN	2024-04-21T18:14:10Z
150358	Update version: TheBrowserCompany.Arc version 0.18.0.22124	BiosPlus:TheBrowserCompany.Arc-0.18.0.22124-8469E3BED81347D7859068EDBB6C7FFE	OPEN	2024-04-21T09:19:33Z
150337	New version: Microsoft.OneDrive.Internal.Slow version 24.078.0416.0003	SpecterShell:Microsoft.OneDrive.Internal.Slow-24.078.0416.0003-120336320	OPEN	2024-04-21T00:52:05Z
150336	New version: Microsoft.OneDrive.Internal.Fast version 24.078.0416.0001	SpecterShell:Microsoft.OneDrive.Internal.Fast-24.078.0416.0001-1888695684	OPEN	2024-04-21T00:39:11Z
150335	New version: Microsoft.OneDrive.Insiders version 24.076.0414.0005	SpecterShell:Microsoft.OneDrive.Insiders-24.076.0414.0005-400533584	OPEN	2024-04-21T00:33:06Z
150334	New version: Microsoft.OneDrive.Enterprise version 23.209.1008.0002	SpecterShell:Microsoft.OneDrive.Enterprise-23.209.1008.0002-1383337195	OPEN	2024-04-21T00:26:14Z
150333	New version: Microsoft.OneDrive version 24.065.0331.0002	SpecterShell:Microsoft.OneDrive-24.065.0331.0002-1657063075	OPEN	2024-04-21T00:20:13Z
150326	New package: yuyuanweb.jianqiezhushou version 0.5	CoolPlayLin:yuyuanweb.jianqiebanzhushou-0.5-8EFC70B5B0D94E69A704F02F5B248B61	OPEN	2024-04-20T23:08:21Z
150315	Automatic update of PerfectWorld.PerfectWorldArena from 1.0.24041812 to 1.0.24041812.997	wingetbot:AutomaticUpdate_714c3c29-fa78-4011-9ff4-ae2ed29df114	OPEN	2024-04-20T20:50:24Z
150308	tibbo.ioninja version 5.5.1	vedantmgoyal9:tibbo.ioninja-5.5.1-a46f16f3-2747-483a-83be-acd375a65192	OPEN	2024-04-20T16:28:50Z
150298	New package: SABnzbdTeam.SABnzbd.Potable version 4.2.3	CoolPlayLin:SABnzbdTeam.SABnzbd.Potable-4.2.3-BBAF5B59432145DEA45EC46D9DD20055	OPEN	2024-04-20T11:08:31Z
150223	Oracle.VirtualBox version 7.0.16	vedantmgoyal9:Oracle.VirtualBox-7.0.16-093b95d4-2e7b-4f1b-a1a2-7588551f91d4	OPEN	2024-04-20T05:25:32Z
150196	Automatic deletion of NativeInstruments.NativeAccess 3.10.1	wingetbot:AutomaticUpdate_929f015a-266b-4940-9ba8-fd88dff0bc0f	OPEN	2024-04-20T01:07:47Z
150163	Automatic deletion of BiniSoft.WindowsFirewallControl 6.9.9.9	wingetbot:AutomaticUpdate_77e83ed3-2f93-4baf-a38e-da10a58095c8	OPEN	2024-04-19T21:52:20Z
150141	Automatic update of Jidifudi.GT4T from 8.43.240407 to 8.44.240419	wingetbot:AutomaticUpdate_f1b7ffb0-dfff-4cb2-8a90-782904ce7feb	OPEN	2024-04-19T20:08:55Z
150139	Synology.DriveClient version 7.5.0.16084	s-crypt:Synology.DriveClient-3.5.0.16084-db91dbc2-85cf-4d10-b1eb-537641e8f2a2	OPEN	2024-04-19T19:50:44Z
150083	JackieLiu.NotepadsApp version 1.5.4.0	vedantmgoyal9:JackieLiu.NotepadsApp-1.5.4.0-b5b86c75-6826-44bb-81e1-bad93637306b	OPEN	2024-04-19T05:26:21Z
150033	Automatic update of Viber.Viber from 22.4.1.0 to 22.5.0.1	wingetbot:AutomaticUpdate_4230fc31-4784-457d-b413-cda37035cd82	OPEN	2024-04-18T22:18:12Z
150015	New version: MuhammadFareezIqmal.IIUMSchedule version 1.4.4.0	iqfareez:MuhammadFareezIqmal.IIUMSchedule-1.4.4.0-726a1237-dbf4-435a-a430-830ac43a1ae3	OPEN	2024-04-18T21:04:06Z
150013	Automatic deletion of evernote.evernote 10.85.2.20240416125300	wingetbot:AutomaticUpdate_748a4570-a54c-4d11-83bb-4113c747f42e	OPEN	2024-04-18T20:56:57Z
150003	Automatic deletion of AdGuard.AdGuard.Nightly 7.17.4708.0	wingetbot:AutomaticUpdate_3703ba58-8604-4cb1-9732-8f267ac9a9f8	OPEN	2024-04-18T19:30:13Z
149994	New version: AIMP.AIMP version 5.30.2541	soredake:AIMP.AIMP-5.30.2541-4CA526972AAE4D78877E26EAFF0FBF3B	OPEN	2024-04-18T18:53:58Z
149823	Remove version: bencoepp.kommod version 1.0.0.0	Exorcism0666:bencoepp.kommod-1.0.0.0-CD4E3F7B00295DB7700AC16AA45C53D4CE3E56FB	OPEN	2024-04-18T15:23:55Z
149816	Remove version: BlueMarbleGeographics.GlobalMapper version 24.00.0000	Exorcism0666:BlueMarbleGeographics.GlobalMapper-24.00.0000-30F0C5D4040F64774B97088D9067D5B7A200B424	OPEN	2024-04-18T12:40:41Z
149761	New package: RakutenSymphonyKorea.SendAnywhere version 24.3.80853	alexkoala:RakutenSymphonyKorea.SendAnywhere-24.3.80853-36028527-79fd-4815-9b7c-891d52376e39	OPEN	2024-04-18T03:50:27Z
149751	New version: GodotEngine.GodotEngine version 4.2.2	Exorcism0666:GodotEngine.GodotEngine-4.2.2-B339DB38987147A0BFED8AE888F49CF0	OPEN	2024-04-18T01:21:25Z
149742	Automatic update of Stardock.Start10 from 1.9.7 to 9.5.3.0	wingetbot:AutomaticUpdate_9b030d4c-3060-44d5-90f7-fd4a1bd326d1	OPEN	2024-04-18T00:57:44Z
149737	Playnite.Playnite version 10.33	vedantmgoyal9:Playnite.Playnite-10.33-be17ac32-4e35-45d9-a884-1f41af2b5681	OPEN	2024-04-18T00:34:15Z
149664	New version: JetBrains.dotUltimate version 2024.1.1	SpecterShell:JetBrains.dotUltimate-2024.1.1-171593909	OPEN	2024-04-17T17:09:21Z
149638	New package: ArduinoSA.ArduinoIDE version 2.3.2.0	Jvr2022:ArduinoSA.ArduinoIDE-2.3.2.0-f0211596-fb5d-43a0-921f-ec1470041ae0	OPEN	2024-04-17T13:41:33Z
149569	New package: Fendapp.Fendapp version 0.1.5	JadedBlueEyes:Fendapp.Fendapp-0.1.3-9E76790417D14F5C9086E0561BBA9394	OPEN	2024-04-17T00:27:20Z
149503	Update package: Tillitis.TkeySign version 1.0.0	tillitis:update/tkey-sign	OPEN	2024-04-16T20:24:23Z
149502	Automatic update of Oracle.JDK.21 from 21.0.2 to 21.0.3.0	wingetbot:AutomaticUpdate_15e8630d-bb4b-40fe-bda5-2145488aafe1	OPEN	2024-04-16T20:18:15Z
149484	Microsoft.VisualStudio.2022.Community.Preview version 17.10.0	edwardskrod:autogenerated/Microsoft.VisualStudio.2022.Community.Preview/b668fa00-ce1d-4929-9978-b0f0db21e050	OPEN	2024-04-16T17:20:09Z
149483	Microsoft.VisualStudio.2022.Professional.Preview version 17.10.0	edwardskrod:autogenerated/Microsoft.VisualStudio.2022.Professional.Preview/e90c4c0e-e94c-41d4-bcc6-ffb0ad4037fc	OPEN	2024-04-16T17:19:54Z
149482	Microsoft.VisualStudio.2022.Enterprise.Preview version 17.10.0	edwardskrod:autogenerated/Microsoft.VisualStudio.2022.Enterprise.Preview/a2b63403-dbf5-40c4-b620-895dd27abde0	OPEN	2024-04-16T17:19:41Z
149349	Remove Systweak.DuplicateMusicFixer 2.1.1000.11070 to SystweakSoftware.DuplicateMusicFixer 2.1.1000.11070	Trenly:Remove-Systweak.DuplicateMusicFixer-v2.1.1000.11070-C2BD862A	OPEN	2024-04-15T18:53:39Z
149344	Add Devolutions RemoteDesktopManagerAgent version 2024.1.25.0	Devolutions:RDMAgent-WinGet-2024.1.25.0	OPEN	2024-04-15T18:40:05Z
149331	New package: Genesys.GenesysCloud version 2.34.771	Dragon1573:issues/149330	OPEN	2024-04-15T16:45:42Z
149291	New version: JetBrains.QodanaCLI version 2024.1.0	qodana-bot:JetBrains.QodanaCLI-2024.1.0-D3F833F6BCA7D8E86F405B1A83A74C11	OPEN	2024-04-15T11:04:55Z
149240	New package Akko.CloudDriver in version 370.1.3	FaserF:new-package-akko-cloud-driver	OPEN	2024-04-15T05:40:24Z
149033	Automatic update of Parsec.Parsec from 150-92a to 150.93.2.0	wingetbot:AutomaticUpdate_89398a96-b7e0-4036-82a6-eb4bb2d9856c	OPEN	2024-04-13T20:37:44Z
148956	New package: Nvidia.app.Beta version 10.0.0.535	aisgbnok:new-NVIDIA.app.Beta-10.0.0.535	OPEN	2024-04-12T22:42:52Z
148926	Add version: Telegram.Unigram version 10.7.0.9893	rakleed:Telegram.Unigram-10.7.0.9893-3E0F92CC09F24C21B66E20475D9CA0D5	OPEN	2024-04-12T19:28:24Z
148689	chore: add latest HashiCorp Vault	dugandarinPFG:HashiCorp.Vault-1.16.1	OPEN	2024-04-11T16:27:49Z
148233	New version: ente-io.photos-desktop version 1.6.63	Trenly:ente-io.photos-desktop-1.6.63-96847677	OPEN	2024-04-08T22:41:02Z
148226	New Package: ente-io.ente.Auth version 2.0.50+250	Trenly:ente-io.ente-2.0.50-DD5DCF68	OPEN	2024-04-08T22:20:18Z
148219	New version: Microsoft.VisualStudio.2022.Community version 17.9.5	Trenly:Microsoft.VisualStudio.2022.Community-17.9.5-0A73C432	OPEN	2024-04-08T20:56:59Z
148112	New version: RustDesk.RustDesk version 1.2.3-2	SpecterShell:RustDesk.RustDesk-1.2.3-2-644325093	OPEN	2024-04-07T22:31:14Z
148086	New version: TableClothProject.TableCloth version 1.13.0	rkttu:TableClothProject.TableCloth-1.13.0-5ab0002c-3682-4f6e-a10d-010b75e6bff8	OPEN	2024-04-07T12:28:13Z
147901	New version: GOMLab.GOMPlayer version 2.3.95.5365	Trenly:GOMLab.GOMPlayer-2.3.95.5365-9A9B8F6D	OPEN	2024-04-05T14:31:39Z
147897	New version: Sigil-Ebook.PageEdit version 2.1.0	Trenly:Sigil-Ebook.PageEdit-2.1.0-7111490	OPEN	2024-04-05T14:21:53Z
147679	New version: ente-io.ente version 2.0.50	Exorcism0666:ente-io.ente-2.0.50-81718C2F59994150A4E2BEDA24EE5C4A	OPEN	2024-04-04T08:24:17Z
147672	New package: tacitdynamics.foldersync-desktop-production version 1.1.0	Exorcism0666:tacitdynamics.foldersync-desktop-production-1.1.0-D9E8D7D0641B4DFAADD068D1471218ED	OPEN	2024-04-04T06:52:14Z
147569	New version: github.com.benny93.kafui 0.1.23	Benny93:master	OPEN	2024-04-03T20:51:13Z
147376	New package: FrenchGithubUser.Hatt version 0.3.5	soredake:FrenchGithubUser.Hatt-0.3.5-725E156C080F4C598A9DD6622D522FB2	OPEN	2024-04-02T19:45:10Z
147354	[PHP] Add PHP 8.0, 8.1, 8.2, and 8.3	PHPWatch:php	OPEN	2024-04-02T13:29:46Z
147089	Automatic update of Piriform.CCleaner.ProTrial from 6.19.0.10858 to 6.22.0.10977	wingetbot:AutomaticUpdate_5d70bc95-320f-476e-877b-62e318768ff6	OPEN	2024-03-30T20:40:27Z
146088	New package: Teclib'.GLPIAgent1.7.1 version 1.7.1	MaxKoerck:Teclib'.GLPIAgent1.7.1-1.7.1-db39a5f4-4fbf-402e-9f7c-568446233bf6	OPEN	2024-03-22T23:13:58Z
145232	New version: OpslyCloud.opsly-cli version v0.0.1-alpha.19	Opsly:release-v0.0.1-alpha.19	OPEN	2024-03-19T15:58:02Z
145045	Remove: Julialang.Julia.LTS version 1.6.7	SpecterShell:Julialang.Julia.LTS-1.6.7-Remove	DRAFT	2024-03-18T05:50:29Z
145044	Remove: Julialang.Julia version 1.9.4	SpecterShell:Julialang.Julia-1.9.4-Remove	DRAFT	2024-03-18T05:44:53Z
145043	Remove: Julialang.Julia version 1.9.3	SpecterShell:Julialang.Julia-1.9.3-Remove	DRAFT	2024-03-18T05:44:44Z
145042	Remove: Julialang.Julia version 1.9.2	SpecterShell:Julialang.Julia-1.9.2-Remove	DRAFT	2024-03-18T05:44:35Z
145041	Remove: Julialang.Julia version 1.9.1	SpecterShell:Julialang.Julia-1.9.1-Remove	DRAFT	2024-03-18T05:44:26Z
145040	Remove: Julialang.Julia version 1.9.0	SpecterShell:Julialang.Julia-1.9.0-Remove	DRAFT	2024-03-18T05:44:17Z
145039	Remove: Julialang.Julia version 1.8.5	SpecterShell:Julialang.Julia-1.8.5-Remove	DRAFT	2024-03-18T05:44:09Z
145038	Remove: Julialang.Julia version 1.8.4	SpecterShell:Julialang.Julia-1.8.4-Remove	DRAFT	2024-03-18T05:44:00Z
145037	Remove: Julialang.Julia version 1.8.3	SpecterShell:Julialang.Julia-1.8.3-Remove	DRAFT	2024-03-18T05:43:51Z
145036	Remove: Julialang.Julia version 1.8.2	SpecterShell:Julialang.Julia-1.8.2-Remove	DRAFT	2024-03-18T05:43:43Z
145035	Remove: Julialang.Julia version 1.8.1	SpecterShell:Julialang.Julia-1.8.1-Remove	DRAFT	2024-03-18T05:43:34Z
145034	Remove: Julialang.Julia version 1.8.0	SpecterShell:Julialang.Julia-1.8.0-Remove	DRAFT	2024-03-18T05:43:24Z
145033	Remove: Julialang.Julia version 1.7.3	SpecterShell:Julialang.Julia-1.7.3-Remove	DRAFT	2024-03-18T05:43:16Z
145032	Remove: Julialang.Julia version 1.7.2	SpecterShell:Julialang.Julia-1.7.2-Remove	DRAFT	2024-03-18T05:43:07Z
145031	Remove: Julialang.Julia version 1.7.1	SpecterShell:Julialang.Julia-1.7.1-Remove	DRAFT	2024-03-18T05:42:58Z
145030	Remove: Julialang.Julia version 1.7.0	SpecterShell:Julialang.Julia-1.7.0-Remove	DRAFT	2024-03-18T05:42:50Z
145029	Remove: Julialang.Julia version 1.6.2	SpecterShell:Julialang.Julia-1.6.2-Remove	DRAFT	2024-03-18T05:42:41Z
145028	Remove: Julialang.Julia version 1.6.1	SpecterShell:Julialang.Julia-1.6.1-Remove	DRAFT	2024-03-18T05:42:32Z
145027	Remove: Julialang.Julia version 1.5.4	SpecterShell:Julialang.Julia-1.5.4-Remove	DRAFT	2024-03-18T05:42:23Z
145026	Remove: Julialang.Julia version 1.5.1	SpecterShell:Julialang.Julia-1.5.1-Remove	DRAFT	2024-03-18T05:42:14Z
145025	Remove: Julialang.Julia version 1.4.2	SpecterShell:Julialang.Julia-1.4.2-Remove	DRAFT	2024-03-18T05:42:06Z
145024	Remove: Julialang.Julia version 1.4.1	SpecterShell:Julialang.Julia-1.4.1-Remove	DRAFT	2024-03-18T05:41:57Z
145023	Remove: Julialang.Julia version 1.10.0	SpecterShell:Julialang.Julia-1.10.0-Remove	DRAFT	2024-03-18T05:41:48Z
144902	Kingsoft.KingsoftPDF 12.6.0.15502	stevenlele:wpspdf-15502	OPEN	2024-03-16T19:35:13Z
144837	Add version: OpenJS.NodeJS.LTS version 4.6.1	coolplaylinbot:OpenJS.NodeJS.LTS-4.6.1-12E16E886095427185CF663068FF2060	OPEN	2024-03-16T04:25:46Z
144835	Add version: OpenJS.NodeJS.LTS version 4.7.0	coolplaylinbot:OpenJS.NodeJS.LTS-4.7.0-9C6CCC36F6B247FF980A27CDFEEE1532	OPEN	2024-03-16T04:25:41Z
144834	Add version: OpenJS.NodeJS.LTS version 4.7.1	coolplaylinbot:OpenJS.NodeJS.LTS-4.7.1-6F765DBC91284313AE0BB44580EFFBA8	OPEN	2024-03-16T04:25:38Z
144833	Add version: OpenJS.NodeJS.LTS version 4.7.2	coolplaylinbot:OpenJS.NodeJS.LTS-4.7.2-913DBAE2D09B482FA3C3177DAD0E0068	OPEN	2024-03-16T04:25:35Z
144832	Add version: OpenJS.NodeJS.LTS version 4.7.3	coolplaylinbot:OpenJS.NodeJS.LTS-4.7.3-9AB4A9C14D024CBB8E5CA2DC582A3261	OPEN	2024-03-16T04:25:32Z
144831	Add version: OpenJS.NodeJS.LTS version 4.8.0	coolplaylinbot:OpenJS.NodeJS.LTS-4.8.0-D159C53DEB9B45E999656CFB4174130E	OPEN	2024-03-16T04:25:29Z
144830	Add version: OpenJS.NodeJS.LTS version 4.8.1	coolplaylinbot:OpenJS.NodeJS.LTS-4.8.1-164D84BCC86945F987F166246C4830E8	OPEN	2024-03-16T04:25:26Z
144829	Add version: OpenJS.NodeJS.LTS version 4.8.2	coolplaylinbot:OpenJS.NodeJS.LTS-4.8.2-04BA7336D79642EE8BAAB5F405B5560B	OPEN	2024-03-16T04:25:23Z
144828	Add version: OpenJS.NodeJS.LTS version 4.8.3	coolplaylinbot:OpenJS.NodeJS.LTS-4.8.3-9E5843BE6D134ABF9E91D3251AD78544	OPEN	2024-03-16T04:25:19Z
144827	Add version: OpenJS.NodeJS.LTS version 4.8.4	coolplaylinbot:OpenJS.NodeJS.LTS-4.8.4-E3E476334DCA45E09B305BE7F368430E	OPEN	2024-03-16T04:25:16Z
144826	Add version: OpenJS.NodeJS.LTS version 4.8.5	coolplaylinbot:OpenJS.NodeJS.LTS-4.8.5-67F764CC503A4AA9BE680DEE53CB9BBE	OPEN	2024-03-16T04:25:13Z
144825	Add version: OpenJS.NodeJS.LTS version 4.9.0	coolplaylinbot:OpenJS.NodeJS.LTS-4.9.0-7ABA111D3A334976A3BC9ED97EE8FC3E	OPEN	2024-03-16T04:25:05Z
144824	Add version: OpenJS.NodeJS.LTS version 4.9.1	coolplaylinbot:OpenJS.NodeJS.LTS-4.9.1-F9EA5A6E5C96486992F66F4F138D4038	OPEN	2024-03-16T04:25:02Z
144823	Add version: OpenJS.NodeJS.LTS version 6.9.0	coolplaylinbot:OpenJS.NodeJS.LTS-6.9.0-AE5D07B1D1DF461CB4EDB38A1BBEF252	OPEN	2024-03-16T04:25:00Z
144822	Add version: OpenJS.NodeJS.LTS version 6.9.1	coolplaylinbot:OpenJS.NodeJS.LTS-6.9.1-D97CF833C4D348DA8686654001EC8666	OPEN	2024-03-16T04:24:57Z
144821	Add version: OpenJS.NodeJS.LTS version 6.9.2	coolplaylinbot:OpenJS.NodeJS.LTS-6.9.2-BBB34615E6404469B3DD583778C17693	OPEN	2024-03-16T04:24:54Z
144820	Add version: OpenJS.NodeJS.LTS version 6.9.3	coolplaylinbot:OpenJS.NodeJS.LTS-6.9.3-D87057F2A1BB45BDA53F7F805628B2A5	OPEN	2024-03-16T04:24:51Z
144819	Add version: OpenJS.NodeJS.LTS version 6.9.4	coolplaylinbot:OpenJS.NodeJS.LTS-6.9.4-A63460E167C948E0839F095FD6CBF177	OPEN	2024-03-16T04:24:49Z
144818	Add version: OpenJS.NodeJS.LTS version 6.9.5	coolplaylinbot:OpenJS.NodeJS.LTS-6.9.5-8601AAE2A63D4577AD8B4747B5A196E0	OPEN	2024-03-16T04:24:46Z
144817	Add version: OpenJS.NodeJS.LTS version 6.10.0	coolplaylinbot:OpenJS.NodeJS.LTS-6.10.0-49FA151DBDE6491DB9E089E4BE5E243D	OPEN	2024-03-16T04:24:43Z
144816	Add version: OpenJS.NodeJS.LTS version 6.10.1	coolplaylinbot:OpenJS.NodeJS.LTS-6.10.1-D94F471410FB4F8680199C55877EB8E4	OPEN	2024-03-16T04:24:40Z
144815	Add version: OpenJS.NodeJS.LTS version 6.10.2	coolplaylinbot:OpenJS.NodeJS.LTS-6.10.2-F3A7ABA4209E451B969C1F824D8A4987	OPEN	2024-03-16T04:24:37Z
144814	Add version: OpenJS.NodeJS.LTS version 6.10.3	coolplaylinbot:OpenJS.NodeJS.LTS-6.10.3-D3E4E755D44C495FB96B053B5A53F946	OPEN	2024-03-16T04:24:35Z
144813	Add version: OpenJS.NodeJS.LTS version 6.11.0	coolplaylinbot:OpenJS.NodeJS.LTS-6.11.0-ABB6CB3D7BF84AB7AD9E3D4A31BF2C14	OPEN	2024-03-16T04:24:31Z
144812	Add version: OpenJS.NodeJS.LTS version 6.11.1	coolplaylinbot:OpenJS.NodeJS.LTS-6.11.1-D883DBFEDE344DFC9FCD31BFCAD446D9	OPEN	2024-03-16T04:24:29Z
144811	Add version: OpenJS.NodeJS.LTS version 6.11.2	coolplaylinbot:OpenJS.NodeJS.LTS-6.11.2-B436258B94504B87AA4E277AAA2F5BEE	OPEN	2024-03-16T04:24:26Z
144810	Add version: OpenJS.NodeJS.LTS version 6.11.3	coolplaylinbot:OpenJS.NodeJS.LTS-6.11.3-0850E5AD83524AE3835A7F9EA47D9DF3	OPEN	2024-03-16T04:24:23Z
144809	Add version: OpenJS.NodeJS.LTS version 6.11.4	coolplaylinbot:OpenJS.NodeJS.LTS-6.11.4-37440D49EDF14471AB454C7935BF018E	OPEN	2024-03-16T04:24:21Z
144808	Add version: OpenJS.NodeJS.LTS version 6.11.5	coolplaylinbot:OpenJS.NodeJS.LTS-6.11.5-D962DAAF95A5492AB8AEE3AB1AFCA741	OPEN	2024-03-16T04:24:18Z
144807	Add version: OpenJS.NodeJS.LTS version 6.12.0	coolplaylinbot:OpenJS.NodeJS.LTS-6.12.0-A67F2AB2A4214377BFA2F0F2E936FCBD	OPEN	2024-03-16T04:24:15Z
144806	Add version: OpenJS.NodeJS.LTS version 6.12.1	coolplaylinbot:OpenJS.NodeJS.LTS-6.12.1-6C3DC03167064BAFBE238FBB7AFDBDD1	OPEN	2024-03-16T04:24:12Z
144805	Add version: OpenJS.NodeJS.LTS version 6.13.0	coolplaylinbot:OpenJS.NodeJS.LTS-6.13.0-7811A75C93774631BDF36BFC273D3410	OPEN	2024-03-16T04:24:03Z
144804	Add version: OpenJS.NodeJS.LTS version 6.13.1	coolplaylinbot:OpenJS.NodeJS.LTS-6.13.1-EE82FB2ADD4E4F97807FC6CE93EA82A9	OPEN	2024-03-16T04:24:00Z
144803	Add version: OpenJS.NodeJS.LTS version 6.14.0	coolplaylinbot:OpenJS.NodeJS.LTS-6.14.0-2A3BD72A1EF64363BF15E03A90669C08	OPEN	2024-03-16T04:23:57Z
144802	Add version: OpenJS.NodeJS.LTS version 6.14.1	coolplaylinbot:OpenJS.NodeJS.LTS-6.14.1-AAE44F31F49C4D8F8BC3195AA6B13AB2	OPEN	2024-03-16T04:23:54Z
144801	Add version: OpenJS.NodeJS.LTS version 6.14.2	coolplaylinbot:OpenJS.NodeJS.LTS-6.14.2-540EC340836F4A088B507E220B4EE7A1	OPEN	2024-03-16T04:23:52Z
144800	Add version: OpenJS.NodeJS.LTS version 6.14.3	coolplaylinbot:OpenJS.NodeJS.LTS-6.14.3-F856838B97BC49F09DC0192FB2DEC082	OPEN	2024-03-16T04:23:49Z
144799	Add version: OpenJS.NodeJS.LTS version 6.14.4	coolplaylinbot:OpenJS.NodeJS.LTS-6.14.4-74EBA0E8EB774E3EB1FD74F39AEE0180	OPEN	2024-03-16T04:23:46Z
144798	Add version: OpenJS.NodeJS.LTS version 6.15.0	coolplaylinbot:OpenJS.NodeJS.LTS-6.15.0-D0E421ACFA1C484199B331DF02C3CE03	OPEN	2024-03-16T04:23:43Z
144797	Add version: OpenJS.NodeJS.LTS version 6.15.1	coolplaylinbot:OpenJS.NodeJS.LTS-6.15.1-DCE8EE7B165D42C6A155778918FBCA62	OPEN	2024-03-16T04:23:40Z
144796	Add version: OpenJS.NodeJS.LTS version 6.16.0	coolplaylinbot:OpenJS.NodeJS.LTS-6.16.0-E11C0EEFCA114D39AAD26D9DFA9FDF99	OPEN	2024-03-16T04:23:36Z
144795	Add version: OpenJS.NodeJS.LTS version 6.17.0	coolplaylinbot:OpenJS.NodeJS.LTS-6.17.0-1C267C3406C948A197E15AF813206BE9	OPEN	2024-03-16T04:23:33Z
144794	Add version: OpenJS.NodeJS.LTS version 6.17.1	coolplaylinbot:OpenJS.NodeJS.LTS-6.17.1-12471C9F70EF4A5B81D014E5FA9F1EA2	OPEN	2024-03-16T04:23:30Z
144793	Add version: OpenJS.NodeJS.LTS version 8.9.0	coolplaylinbot:OpenJS.NodeJS.LTS-8.9.0-93C4D134278F441EA597A00FBF1B303A	OPEN	2024-03-16T04:23:28Z
144792	Add version: OpenJS.NodeJS.LTS version 8.9.1	coolplaylinbot:OpenJS.NodeJS.LTS-8.9.1-EBBFBC61D3E24A36BABB9924A3594A66	OPEN	2024-03-16T04:23:25Z
144791	Add version: OpenJS.NodeJS.LTS version 8.9.2	coolplaylinbot:OpenJS.NodeJS.LTS-8.9.2-3601471C03DD44CC8F9530BA44DFA7B0	OPEN	2024-03-16T04:23:22Z
144790	Add version: OpenJS.NodeJS.LTS version 8.9.3	coolplaylinbot:OpenJS.NodeJS.LTS-8.9.3-40A01CC8A03346D9B93362552516F0E2	OPEN	2024-03-16T04:23:19Z
144789	Add version: OpenJS.NodeJS.LTS version 8.9.4	coolplaylinbot:OpenJS.NodeJS.LTS-8.9.4-8535BEF3CEA54B91B8CEE5C4A9BAAC84	OPEN	2024-03-16T04:23:16Z
144788	Add version: OpenJS.NodeJS.LTS version 8.10.0	coolplaylinbot:OpenJS.NodeJS.LTS-8.10.0-9D42D4FAD76042FE9E590425E06FAB16	OPEN	2024-03-16T04:23:14Z
144786	Add version: OpenJS.NodeJS.LTS version 8.11.1	coolplaylinbot:OpenJS.NodeJS.LTS-8.11.1-1E031C3A5D2B4400BD7DB51422A82528	OPEN	2024-03-16T04:23:08Z
144785	Add version: OpenJS.NodeJS.LTS version 8.11.4	coolplaylinbot:OpenJS.NodeJS.LTS-8.11.4-08980EE47E124A22B6464EC3A0C5793F	OPEN	2024-03-16T04:23:00Z
144784	Add version: OpenJS.NodeJS.LTS version 8.12.0	coolplaylinbot:OpenJS.NodeJS.LTS-8.12.0-467E21A2201A40AD828B8E264BCCBB23	OPEN	2024-03-16T04:22:58Z
144783	Add version: OpenJS.NodeJS.LTS version 8.13.0	coolplaylinbot:OpenJS.NodeJS.LTS-8.13.0-CBAE1A756FFC4E5FB05FD0695D2720AA	OPEN	2024-03-16T04:22:55Z
144782	Add version: OpenJS.NodeJS.LTS version 8.14.0	coolplaylinbot:OpenJS.NodeJS.LTS-8.14.0-16B7AE13121E4F0AAF6E23515E625129	OPEN	2024-03-16T04:22:52Z
144781	Add version: OpenJS.NodeJS.LTS version 8.14.1	coolplaylinbot:OpenJS.NodeJS.LTS-8.14.1-93242DF78C124B709D592DCD8163647A	OPEN	2024-03-16T04:22:49Z
144780	Add version: OpenJS.NodeJS.LTS version 8.15.0	coolplaylinbot:OpenJS.NodeJS.LTS-8.15.0-4C0B640B6DE04AFDA946384C52BECF9D	OPEN	2024-03-16T04:22:47Z
144779	Add version: OpenJS.NodeJS.LTS version 8.15.1	coolplaylinbot:OpenJS.NodeJS.LTS-8.15.1-413D3629F5664870813AD9C48BBEE964	OPEN	2024-03-16T04:22:44Z
144778	Add version: OpenJS.NodeJS.LTS version 8.16.0	coolplaylinbot:OpenJS.NodeJS.LTS-8.16.0-3342715629AA4B93BA02E1ABB43B0EDF	OPEN	2024-03-16T04:22:41Z
144777	Add version: OpenJS.NodeJS.LTS version 8.16.1	coolplaylinbot:OpenJS.NodeJS.LTS-8.16.1-38A1102BB9B842A2AB87382975F98DD8	OPEN	2024-03-16T04:22:38Z
144776	Add version: OpenJS.NodeJS.LTS version 8.16.2	coolplaylinbot:OpenJS.NodeJS.LTS-8.16.2-8A20EB7D95454944B9B71403C3E44350	OPEN	2024-03-16T04:22:35Z
144775	Add version: OpenJS.NodeJS.LTS version 8.17.0	coolplaylinbot:OpenJS.NodeJS.LTS-8.17.0-0C55AB7B939C4C16877D2AD21F686B61	OPEN	2024-03-16T04:22:32Z
144774	Add version: OpenJS.NodeJS.LTS version 10.13.0	coolplaylinbot:OpenJS.NodeJS.LTS-10.13.0-B577FB9150814DDB8728060FD40D804B	OPEN	2024-03-16T04:22:30Z
144773	Add version: OpenJS.NodeJS.LTS version 10.14.0	coolplaylinbot:OpenJS.NodeJS.LTS-10.14.0-318227AC580440D193EA7E714856D0C4	OPEN	2024-03-16T04:22:27Z
144772	Add version: OpenJS.NodeJS.LTS version 10.14.1	coolplaylinbot:OpenJS.NodeJS.LTS-10.14.1-D1E1D90961FD4D4DA5360786DE9AFAC1	OPEN	2024-03-16T04:22:24Z
144771	Add version: OpenJS.NodeJS.LTS version 10.14.2	coolplaylinbot:OpenJS.NodeJS.LTS-10.14.2-4B1D6F44143B467E9BF8DC43981BEA11	OPEN	2024-03-16T04:22:21Z
144770	Add version: OpenJS.NodeJS.LTS version 10.15.0	coolplaylinbot:OpenJS.NodeJS.LTS-10.15.0-2FC90DEC455C4AA6A9265D80261A32BA	OPEN	2024-03-16T04:22:18Z
144769	Add version: OpenJS.NodeJS.LTS version 10.15.1	coolplaylinbot:OpenJS.NodeJS.LTS-10.15.1-7C4442E19E0248F89FBAFAF6D8D9A420	OPEN	2024-03-16T04:22:15Z
144768	Add version: OpenJS.NodeJS.LTS version 10.15.2	coolplaylinbot:OpenJS.NodeJS.LTS-10.15.2-9A3FAA0A2A4C4151A23CF9D953E7B68C	OPEN	2024-03-16T04:22:12Z
144764	Add version: OpenJS.NodeJS.LTS version 10.16.2	coolplaylinbot:OpenJS.NodeJS.LTS-10.16.2-BF5AD5B9B1F74BAEB8125CEDCB5E332F	OPEN	2024-03-16T04:22:00Z
144763	Add version: OpenJS.NodeJS.LTS version 10.16.3	coolplaylinbot:OpenJS.NodeJS.LTS-10.16.3-D00FF5DFC46247D48E91D5D2D2C324C5	OPEN	2024-03-16T04:21:57Z
144762	Add version: OpenJS.NodeJS.LTS version 10.17.0	coolplaylinbot:OpenJS.NodeJS.LTS-10.17.0-2018D719E5054D9C8969CCE61868FCFD	OPEN	2024-03-16T04:21:52Z
144761	Add version: OpenJS.NodeJS.LTS version 10.18.0	coolplaylinbot:OpenJS.NodeJS.LTS-10.18.0-2799C78B4293414FAAFD50698E3AABDD	OPEN	2024-03-16T04:21:48Z
144760	Add version: OpenJS.NodeJS.LTS version 10.18.1	coolplaylinbot:OpenJS.NodeJS.LTS-10.18.1-1110501771684C5A86E44CA4058B6AF7	OPEN	2024-03-16T04:21:45Z
144759	Add version: OpenJS.NodeJS.LTS version 10.19.0	coolplaylinbot:OpenJS.NodeJS.LTS-10.19.0-9B1C22350C4E49FCAC55339C5775208F	OPEN	2024-03-16T04:21:42Z
144758	Add version: OpenJS.NodeJS.LTS version 10.20.0	coolplaylinbot:OpenJS.NodeJS.LTS-10.20.0-54C8792DD2EF4301B0682D0B1D085C4D	OPEN	2024-03-16T04:21:39Z
144757	Add version: OpenJS.NodeJS.LTS version 10.20.1	coolplaylinbot:OpenJS.NodeJS.LTS-10.20.1-59E055C892BC4F6798F38424A04BEA86	OPEN	2024-03-16T04:21:36Z
144756	Add version: OpenJS.NodeJS.LTS version 10.21.0	coolplaylinbot:OpenJS.NodeJS.LTS-10.21.0-878DBBD58BAB478B87E693A90E1BAE81	OPEN	2024-03-16T04:21:34Z
144755	Add version: OpenJS.NodeJS.LTS version 10.22.0	coolplaylinbot:OpenJS.NodeJS.LTS-10.22.0-388CB14346DC4FF1B79294C8385AC9E0	OPEN	2024-03-16T04:21:31Z
144754	Add version: OpenJS.NodeJS.LTS version 10.22.1	coolplaylinbot:OpenJS.NodeJS.LTS-10.22.1-9B4642FB423542B5B11CCF5B66DB8960	OPEN	2024-03-16T04:21:28Z
144753	Add version: OpenJS.NodeJS.LTS version 10.23.0	coolplaylinbot:OpenJS.NodeJS.LTS-10.23.0-471D502B871E4D93A2F83CBD9C910348	OPEN	2024-03-16T04:21:25Z
144752	Add version: OpenJS.NodeJS.LTS version 10.23.1	coolplaylinbot:OpenJS.NodeJS.LTS-10.23.1-17BEF616C4EE49A18B1A5BCAF8C3CC2D	OPEN	2024-03-16T04:21:22Z
144751	Add version: OpenJS.NodeJS.LTS version 12.13.0	coolplaylinbot:OpenJS.NodeJS.LTS-12.13.0-7C9BEE419A2C485E9AE111554FBFFB18	OPEN	2024-03-16T04:21:17Z
144750	Add version: OpenJS.NodeJS.LTS version 12.13.1	coolplaylinbot:OpenJS.NodeJS.LTS-12.13.1-E393E9F097A04A9D871AD8E835C2BEF4	OPEN	2024-03-16T04:21:14Z
144749	Add version: OpenJS.NodeJS.LTS version 12.14.0	coolplaylinbot:OpenJS.NodeJS.LTS-12.14.0-0048748EACF947659418F84852801552	OPEN	2024-03-16T04:21:11Z
144748	Add version: OpenJS.NodeJS.LTS version 12.14.1	coolplaylinbot:OpenJS.NodeJS.LTS-12.14.1-9A161C0358A141CAA6F20996FD2A363A	OPEN	2024-03-16T04:21:07Z
144747	Add version: OpenJS.NodeJS.LTS version 12.15.0	coolplaylinbot:OpenJS.NodeJS.LTS-12.15.0-FF22CFEE247446C9A9BACA2D23EDB7CF	OPEN	2024-03-16T04:21:04Z
144746	Add version: OpenJS.NodeJS.LTS version 12.16.0	coolplaylinbot:OpenJS.NodeJS.LTS-12.16.0-1CDCFC75F6C9480FB9298D79C67E1841	OPEN	2024-03-16T04:21:01Z
144745	Add version: OpenJS.NodeJS.LTS version 12.16.1	coolplaylinbot:OpenJS.NodeJS.LTS-12.16.1-F775D376635B4FF6AAA467E4DD3AF490	OPEN	2024-03-16T04:20:58Z
144744	Add version: OpenJS.NodeJS.LTS version 12.16.2	coolplaylinbot:OpenJS.NodeJS.LTS-12.16.2-226142305EEE4F7D83EDF6A2233BC84D	OPEN	2024-03-16T04:20:56Z
144743	Add version: OpenJS.NodeJS.LTS version 12.16.3	coolplaylinbot:OpenJS.NodeJS.LTS-12.16.3-1DC1B401729D447582C4E57CB7E4BA91	OPEN	2024-03-16T04:20:53Z
144742	Add version: OpenJS.NodeJS.LTS version 12.17.0	coolplaylinbot:OpenJS.NodeJS.LTS-12.17.0-DA72A4D3C6064EC98841CA2BC74005F3	OPEN	2024-03-16T04:20:50Z
144741	Add version: OpenJS.NodeJS.LTS version 12.18.0	coolplaylinbot:OpenJS.NodeJS.LTS-12.18.0-D573289680194810BBE80B666684DF3D	OPEN	2024-03-16T04:20:47Z
144740	Add version: OpenJS.NodeJS.LTS version 12.18.1	coolplaylinbot:OpenJS.NodeJS.LTS-12.18.1-83C83860CAE140369BF448C7C3491304	OPEN	2024-03-16T04:20:43Z
144739	Add version: OpenJS.NodeJS.LTS version 12.18.2	coolplaylinbot:OpenJS.NodeJS.LTS-12.18.2-C8D0FBC9C179446DBC631483A3ACA943	OPEN	2024-03-16T04:20:40Z
144738	Add version: OpenJS.NodeJS.LTS version 12.18.3	coolplaylinbot:OpenJS.NodeJS.LTS-12.18.3-9A166B645B904FD0A7AA0FFD968C29ED	OPEN	2024-03-16T04:20:37Z
144737	Add version: OpenJS.NodeJS.LTS version 12.19.1	coolplaylinbot:OpenJS.NodeJS.LTS-12.19.1-018376F1576B45C996C4D658CB37F039	OPEN	2024-03-16T04:20:33Z
144736	Add version: OpenJS.NodeJS.LTS version 12.20.0	coolplaylinbot:OpenJS.NodeJS.LTS-12.20.0-AB0F37667EAC4AAB8620121765942173	OPEN	2024-03-16T04:20:30Z
144731	Add version: OpenJS.NodeJS.LTS version 12.22.5	coolplaylinbot:OpenJS.NodeJS.LTS-12.22.5-ECABDA12BF0C4D61A11090FF111B67C7	OPEN	2024-03-16T04:20:12Z
144730	Add version: OpenJS.NodeJS.LTS version 12.22.6	coolplaylinbot:OpenJS.NodeJS.LTS-12.22.6-A0EC3B6BBB87463E8164204FF13BFE24	OPEN	2024-03-16T04:20:09Z
144729	Add version: OpenJS.NodeJS.LTS version 12.22.7	coolplaylinbot:OpenJS.NodeJS.LTS-12.22.7-9349334293334E36B7AB4DEA6CE5C69D	OPEN	2024-03-16T04:20:06Z
144727	Add version: OpenJS.NodeJS.LTS version 12.22.11	coolplaylinbot:OpenJS.NodeJS.LTS-12.22.11-95DD302EBFD0403AAFCC806D5E373971	OPEN	2024-03-16T04:19:59Z
144726	Add version: OpenJS.NodeJS.LTS version 14.17.2	coolplaylinbot:OpenJS.NodeJS.LTS-14.17.2-DEC02C7CF695473B857BF188C9D29875	OPEN	2024-03-16T04:19:50Z
144725	Add version: OpenJS.NodeJS.LTS version 14.19.1	coolplaylinbot:OpenJS.NodeJS.LTS-14.19.1-1997F1F4F751410EA013DFE8FD553176	OPEN	2024-03-16T04:19:42Z
144724	Add version: OpenJS.NodeJS.LTS version 14.20.0	coolplaylinbot:OpenJS.NodeJS.LTS-14.20.0-A52C31896F22479BBE7DC1243B829E34	OPEN	2024-03-16T04:19:38Z
144723	Add version: OpenJS.NodeJS.LTS version 14.20.1	coolplaylinbot:OpenJS.NodeJS.LTS-14.20.1-207F03DB54BF4F60B401EB8F531420C9	OPEN	2024-03-16T04:19:35Z
144722	Add version: OpenJS.NodeJS.LTS version 16.20.1	coolplaylinbot:OpenJS.NodeJS.LTS-16.20.1-E045DC1E748A49EEA2FCB453CBEE62F1	OPEN	2024-03-16T04:19:21Z
144721	Add version: OpenJS.NodeJS.LTS version 16.20.2	coolplaylinbot:OpenJS.NodeJS.LTS-16.20.2-5B65640CA85046748FA617E93876DB06	OPEN	2024-03-16T04:19:18Z
144720	Add version: OpenJS.NodeJS.LTS version 18.18.1	coolplaylinbot:OpenJS.NodeJS.LTS-18.18.1-0EA01200AF824895A6B7D7438D971DEB	OPEN	2024-03-16T04:19:09Z
144719	Add version: OpenJS.NodeJS.LTS version 18.18.2	coolplaylinbot:OpenJS.NodeJS.LTS-18.18.2-3445F8BC469F470088C7A8BD80A9216E	OPEN	2024-03-16T04:19:06Z
144718	Add version: OpenJS.NodeJS.LTS version 18.19.1	coolplaylinbot:OpenJS.NodeJS.LTS-18.19.1-3B26849FC8DF4A709A7A2A2F2FDA5DFB	OPEN	2024-03-16T04:19:01Z
144312	Autodesk.Meshmixer version 3.5	Rotzbua:Autodesk.Meshmixer-3.5-2a7131a1-7997-440b-b363-167d6dfe4c56	OPEN	2024-03-14T15:12:27Z
144264	New version: Daytonaio.Daytona version 0.3.1	harkiratsm:update-daytona	OPEN	2024-03-14T05:55:58Z
144081	New package: Jigsaw.OutlineClient version 1.12.1	rakleed:Jigsaw.OutlineClient-1.12.1-99b13a86-76be-4bc2-ada7-91cd24084fc8	OPEN	2024-03-12T22:36:50Z
143402	New package: SaleaeInc.Logic version 2.4.14	Exorcism0666:SaleaeInc.Logic-2.4.14-3e70270c-1b48-4491-b2ae-3c10b3e31d0d	OPEN	2024-03-09T15:03:25Z
143072	New package: Saleae.Logic2 version 2.4.14	MatthewA1:Saleae.Logic2-2.4.14-20a6f5ac-cf9d-4cd8-8cd4-7df219deb5d0	OPEN	2024-03-08T23:39:10Z
142684	New version: RustDesk.RustDesk version 1.2.3-1	SpecterShell:RustDesk.RustDesk-1.2.3-1-79C74FD6	OPEN	2024-03-06T05:51:07Z
142091	New package: Bithack.Principia version 2024.02.29	griffi-gh:Bithack.Principia-2024.02.29-380B1B4A9E624D2B99CA7A1C5A6E937A	OPEN	2024-03-04T18:56:19Z
142008	New version: OpslyCloud.opsly-cli version v0.0.1-alpha.18	Opsly:release-v0.0.1-alpha.18	OPEN	2024-03-04T09:08:11Z
141815	New package: Microsoft.XboxApp version 1.0.1.30	rakleed:Microsoft.XboxApp-1.0.1.30-5c7b2f13-9e3c-4004-9c55-5a7c02702309	OPEN	2024-03-02T23:48:35Z
141787	New package: NVIDIACorporation.NVIDIAapp version 1.0.14.0	Barradel:NVIDIACorporation.NVIDIAapp-1.0.14.0-8d56a3e1-6c5c-4083-ac50-56a0edd80fa6	OPEN	2024-03-02T17:02:10Z
141648	Automatic update of Getscreenme.Agent from 2.15.8 to 2.18.1	wingetbot:AutomaticUpdate_f9e15711-8cff-4f9b-b7d6-8e18a1470bd4	OPEN	2024-03-01T21:47:53Z
141643	Automatic update of Getscreenme.Agent from 2.15.7 to 2.18.1	wingetbot:AutomaticUpdate_af8c7c43-8922-4a82-965a-fd0699dd89d0	OPEN	2024-03-01T21:37:55Z
141230	Automatic update of NAVER.Vaccine from 2021.5.7.1 to 2023.6.12.2	wingetbot:AutomaticUpdate_415ea5e7-83af-48b8-badf-d01279dbc3b8	OPEN	2024-02-27T23:56:39Z
141183	New Version: VMware.WorkstationPro version 17.5.1.23298084	virtualex-itv:VMware.WorkstationPro-17.5.1	OPEN	2024-02-27T19:34:52Z
141182	New Version: VMware.WorkstationPlayer version 17.5.1.23298084	virtualex-itv:VMware.WorkstationPlayer-17.5.1	OPEN	2024-02-27T19:34:37Z
141152	New version: Elgato.WaveLink version 1.9.3.1962	OfficialEsco:Elgato.WaveLink-1.9.3.1962-2AACF575	OPEN	2024-02-27T18:15:40Z
140904	New package: nkdAgility.AzureDevOpsExportActionableAgile version 0.1.1	MrHinsh:nkdAgility.AzureDevOpsExportActionableAgile-0.1.1-aa1e77f5-8bc4-49ab-8e24-cd2735555b59	OPEN	2024-02-25T14:22:52Z
140875	New package: GIGABYTE.Sidekick version 24.01.19.01	SpecterShell:GIGABYTE.Sidekick-24.01.03.01-A183BF29	OPEN	2024-02-25T00:01:17Z
140705	New package: NVIDIA.app version 10.0.0.499	Exorcism0666:NVIDIA.app-10.0.0.499-14893F9044AF4A18B71AD1BE24117300	OPEN	2024-02-23T07:21:23Z
140621	Automatic update of AprelTech.SilentInstallBuilder.Beta from 6.2.4.0 to 6.3.0.0	wingetbot:AutomaticUpdate_10f48768-d783-4a74-bbd6-42057124b262	OPEN	2024-02-22T20:07:44Z
140551	New package: AndrewLeech.WSLUSB version 5.3.0	Exorcism0666:AndrewLeech.WSLUSB-5.3.0-081ed0b2-6c9a-4d1c-980b-f0d1769cd860	OPEN	2024-02-22T15:16:44Z
140451	Automatic update of SystweakSoftware.AdvancedSystemOptimizer from 3.81.8181.234 to 3.81.8181.238	wingetbot:AutomaticUpdate_ee67fbd2-ed87-4b59-9948-153270582ae6	OPEN	2024-02-22T00:13:34Z
140335	New package: n4af.TR4W version 4.131.0	Exorcism0666:n4af.TR4W-4.131.0-F3F63D74F9D142869CCEF4D9D00D542C	OPEN	2024-02-21T07:17:41Z
139966	New package: Exiv2.Exiv2 version 0.28.2	Exorcism0666:Exiv2.Exiv2-0.28.2-31871267-8f4b-44bf-9fe8-fe39214a0d19	OPEN	2024-02-18T14:15:06Z
139679	Automatic update of Milvus.AgenteMilvusCore 103.0.0.0	wingetbot:AutomaticUpdate_a122e067-dad6-4338-aad1-efe588cbe458	OPEN	2024-02-16T23:01:52Z
139550	Automatic update of AVS.InstallPackComplete from 5.6.1.184 to 5.6.2.186	wingetbot:AutomaticUpdate_f4fdd036-3788-4577-9808-55dd1f24ccbf	OPEN	2024-02-16T20:35:41Z
139535	Automatic update of Kuwo.KuwoMusic from 9.3.2.0 to 9.3.4.0	wingetbot:AutomaticUpdate_8bdc625a-daa4-4496-bbf6-ec0926571ef0	OPEN	2024-02-16T20:21:25Z
138233	New version: AirDroid.AirDroid version 3.7.2.1	mbilal234:AirDroid.AirDroid-3.7.2.1-E456E8DF	OPEN	2024-02-07T07:39:01Z
138131	xiaoyifang.GoldenDict-ng version 24.01.22	deanapearce:xiaoyifang.GoldenDict-ng-24.01.22-3acef5a8-d8d7-4faf-ad23-9a652d24489d	OPEN	2024-02-06T04:49:00Z
137821	New package: BaileyBrown.cppcryptfs version 1.4.4.2	Exorcism0666:BaileyBrown.cppcryptfs-1.4.4.2-fee01bfe-43bc-4024-b8f0-63a5b6e70560	OPEN	2024-02-04T12:26:02Z
137805	New package: TCHelicon.GoXLRApp version 1.3.3.130	Exorcism0666:TCHelicon.GoXLRApp-1.3.3.130-AE74066C18414072AAD825187F5F4F69	OPEN	2024-02-04T06:46:41Z
137800	New package: Rem0o.FanControl version 180	Exorcism0666:Rem0o.FanControl-180-FBC9FED90D854C28931A8A8E5DEB7790	OPEN	2024-02-04T06:30:17Z
137718	New version: Julialang.Julia version 1.13.0.0	SpecterShell:Julialang.Julia-1.13.0.0-Newversion	DRAFT	2024-02-03T06:12:14Z
137212	Automatic update of Getscreenme.Agent from 2.14.8 to 2.16.2	wingetbot:AutomaticUpdate_9cca0a98-ab08-4783-8e3d-194a22bfe565	OPEN	2024-01-30T20:52:21Z
136931	New package: Microsoft.VCRedist.2015+.arm64 version 14.38.33130.0	CoolPlayLin:Microsoft.VCRedist.2015+.arm64-14.38.33130.0-2375178EB9754EAE94CDDF397ABAB385	OPEN	2024-01-29T03:39:19Z
136827	New version: GNU.Nano version 7.2	CoolPlayLin:GNU.Nano-7.2-6D45E0D48636A67974AFC0E8197798119C1D83E3	OPEN	2024-01-28T04:05:13Z
136817	New version: Kensington.KensingtonWorks version 3.1.8	buzztaiki:Kensington.KensingtonWorks-3.1.8-a100d909-33ef-43e5-aa78-59a6848ca9d6	OPEN	2024-01-27T23:14:38Z
136781	NetDocuments.ndMail version 1.12.0.448	EmmaTheEmu:NetDocuments.ndMail-1.12.0.448-d4d30328-227b-47be-9fe6-7859fa7c3479	OPEN	2024-01-27T14:14:24Z
136654	Microsoft.Sysinternals.Sigcheck version 2.90	varGeneric:Microsoft.Sysinternals.Sigcheck-2.90-c456c9b5-3c81-4c21-a22d-76a940de075d	OPEN	2024-01-26T14:17:55Z
135757	New package: Certiport,aPearsonVUEBusiness.CertiportCompass version 19.0.2.1270	ldriskell:Certiport,aPearsonVUEBusiness.CertiportCompass-19.0.2.1270-7b08cf3b-c8fd-46f2-9625-6412faa08c87	DRAFT	2024-01-22T21:19:10Z
135678	New package: CPUID.CPU-Z.ARM64 version 1.01	Exorcism0666:CPUID.CPU-Z.ARM64-1.01-e00e14b2-58ce-459c-96e6-4dddb16316e6	OPEN	2024-01-21T20:58:08Z
135640	New package: iPerf.iPerf3 version 3.1.3	solomoncyj:iPerf.iPerf3-3.1.3-56c324ff-49ef-43cc-9071-4b5d8e2de28a	DRAFT	2024-01-21T00:31:54Z
135254	New version: Microsoft.WindowsADK version 10.1.25398.1	rasa:Microsoft.WindowsADK-10.1.25398.1-729BCD681042C1318B9418EE13C7EA58940E65DC	OPEN	2024-01-17T23:34:16Z
135162	New package: Ether.Etherpad-Lite version 1.9.6	Exorcism0666:Ether.Etherpad-Lite-1.9.6-fc58d854-3a86-4597-b24c-3a3c399a2a0e	OPEN	2024-01-17T13:05:28Z
134262	New version: Cloudflare.cloudflared version 2024.1.2	vedantmgoyal9:Cloudflare.cloudflared-2024.1.2-20240115143250	DRAFT	2024-01-15T14:32:54Z
134173	New version: AppbyTroye.KoodoReader version 1.6.2	vedantmgoyal9:AppbyTroye.KoodoReader-1.6.2-20240115135637	DRAFT	2024-01-15T13:56:40Z
134172	Add version: Apifox.Apifox version 2.4.12	vedantmgoyal9:Apifox.Apifox-2.4.12-20240115135627	DRAFT	2024-01-15T13:56:30Z
132585	Add Azure Artifacts NuGet Credential Provider	jeffreyrivor:master	OPEN	2024-01-03T22:35:45Z
131710	New package: TruffleSecurity.TruffleHog version 3.63.7	BiosPlus:TruffleSecurity.TruffleHog-3.63.7-DC41B8DF52ECAD40D0E85E9344103F13F09CA086	OPEN	2023-12-23T09:41:10Z
131556	PR Watcher and Manual Validation update.	stephengillie:Tools-update-12-20	OPEN	2023-12-21T18:04:44Z
130839	Flutter 3.16.4	albertopasqualetto:flutter3.16.4	OPEN	2023-12-18T09:32:32Z
129171	trzsz.lrzsz	lonnywong:trzsz.lrzsz-0.12.21rc-70b78f0b-fcf2-4dfa-8dff-9958449fb086	OPEN	2023-12-04T16:16:57Z
126999	New version: Microsoft.VCRedist.2022.arm64 version 14.38.33130.0	imfelixlaw:Microsoft.VCRedist.2022.arm64-14.38.33130.0-D2E8825C8B9C5A60AEA40F91A7CEB9C445017D5A	OPEN	2023-11-16T16:55:29Z
124475	New version: Genymobile.scrcpy version 2.2	coolplaylinbot:Genymobile.scrcpy-2.2-FE093712BEEF5F0BA303FCA646799116D0B2D212	OPEN	2023-11-01T18:13:36Z
123118	New package: Apache.maven version 3.9.5	echocat:Apache/Maven/3.9.5	OPEN	2023-10-19T09:02:08Z
118484	New version: DSGT-DLP.dlp-cli 0.0.10	DSGT-DLP:master	DRAFT	2023-08-30T16:33:55Z
117767	CrystalIDEASoftware.MacsFanControl version 1.5.15	stek29:CrystalIDEASoftware.MacsFanControl-1.5.15-caaf53fc-b14f-4c00-aaed-afe0f0e19fa2	OPEN	2023-08-23T02:31:41Z
117597	New package: ISC.BIND version 9.16.43	honahuku:master	OPEN	2023-08-21T15:02:34Z
116546	New package COAA.PlanePlotter	blackzafiqz:planeplotter	OPEN	2023-08-13T00:23:02Z
115283	New version: SAGAUserGroupAssociation.SAGAGIS version 9.1.1	xyzallan:SAGAUserGroupAssociation.SAGAGIS-9.1.1-ABD2CA8DFAE135	DRAFT	2023-08-04T10:36:19Z
115062	New package: FreakinSoftMania.WinUEFI version 1.9.3	Minionguyjpro:FreakinSoftMania.WinUEFI-1.9.3-345e5f16-92b2-4984-914a-9fe717a14acb	OPEN	2023-08-03T13:43:28Z
114001	Add the Devicetree compiler (`dtc`)	carlescufi:add-dtc	OPEN	2023-08-01T15:08:30Z
113306	Autogenerated/apple.boot camp drivers/b5211d2d b630 4028 b631 1719cad5afa9	upintheairsheep:autogenerated/Apple.BootCampDrivers/b5211d2d-b630-4028-b631-1719cad5afa9	OPEN	2023-07-27T09:04:45Z
113300	Samsung.play av station 4.1.20.47 2ec73e50 ce84 4345 8c2f 7fb49855d65d	upintheairsheep:Samsung.PlayAVStation-4.1.20.47-2ec73e50-ce84-4345-8c2f-7fb49855d65d	OPEN	2023-07-27T08:36:23Z
113297	New package: Lenovo.ThinkPadUtilityforDOS version 4.44.7IU601US	upintheairsheep:Lenovo.ThinkPadUtilityforDOS-4.44.7IU601US-50b89894-1dcd-4bc3-8a38-b4b06773fb5e	OPEN	2023-07-27T08:31:14Z
113067	Dell.command monitor 10.9.1 4 a10 b4 de567824	dellclientopensource:Dell.CommandMonitor-10.9.1-4A10B4DE567824	OPEN	2023-07-24T15:27:01Z
112577	New package: tawk.to version 2.2.0	fontajos:tawk.to-2.2.0-506d6e3f-475d-455a-b963-8ff4ceb2ee6a	OPEN	2023-07-19T13:53:23Z
112223	New package: Stern.Stern version 1.25.0 (#112222)	BoSoeborgPetersen:Stern.Stern-1.25.0	OPEN	2023-07-16T07:20:15Z
112205	New package: Qwerty-133.spcache v0.1.0	Qwerty-133:spcache-v0.1.0	OPEN	2023-07-15T19:14:58Z
112017	New package: Samsung.PlayTouchLauncher version 1.2.0.32	upintheairsheep:Samsung.PlayTouchLauncher-1.2.0.32-62d64b4e-867e-4b56-a12d-8e6c1ee31a4e	OPEN	2023-07-13T04:12:31Z
111982	New package: Samsung.UpdatePlus version 1.3.0.12	upintheairsheep:Samsung.UpdatePlus-1.3.0.12-50fc94b0-8ca7-40fe-bbf8-b0fd75de562f	OPEN	2023-07-12T22:44:06Z
111978	New package: Samsung.RecoverySolution version 1.0.3.21	upintheairsheep:Samsung.RecoverySolution-1.0.3.21-6868633b-ee05-45e5-a98a-96c3038e5e2e	OPEN	2023-07-12T22:34:14Z
111974	New package: Samsung.EasyNetworkManager version 3.0.1.7	upintheairsheep:Samsung.EasyNetworkManager-3.0.1.7-1bcfc17f-b15f-45aa-87d0-fa902dc5cb2f	OPEN	2023-07-12T22:24:34Z
111894	New package: Lenovo.DiagnosticsTool version 4.47.1.4	upintheairsheep:Lenovo.DiagnosticsTool-4.47.1.4-2f0669ce-bd9f-48d0-8b49-58f8bbb17258	OPEN	2023-07-12T04:24:13Z
111884	New package: TekkaGB.FileDaddy version 1.5.6	upintheairsheep:TekkaGB.FileDaddy-1.5.6-e339031b-539d-4df7-b64c-89e9e36d928f	OPEN	2023-07-12T02:52:12Z
111879	New package: Nox.NoxPlayer version 7.0.5.8	SpecterShell:Nox.NoxPlayer-7.0.5.8-Newpackage	OPEN	2023-07-12T01:22:07Z
111867	Apple.FaceTimeCameraUpdate version 1.0	upintheairsheep:autogenerated/Apple.FaceTimeCamerUpdate/bdc6b68f-5108-4459-a680-dca5cac9169f	OPEN	2023-07-11T22:24:48Z
111864	Apple.BcUpdate version 1.1	upintheairsheep:autogenerated/Apple.BcUpdate/17e9f502-7199-4799-82d7-f529e66bab4c	OPEN	2023-07-11T22:18:08Z
110767	New package: PlantUML.PlantUML version v1.2023.9	seppeon:NewPackage-SupportPlantUml	OPEN	2023-06-27T14:03:32Z
110618	New package: Nvidia.GeForceGameReadyDriver	WinkelCode:master	DRAFT	2023-06-24T22:23:30Z
110299	mercedesclk320.SamsungRemote version 1.0	upintheairsheep:autogenerated/mercedesclk320.SamsungRemote/4b5c0f15-a2a8-4bf5-82ad-ae10f59d0184	OPEN	2023-06-20T22:35:20Z
109711	Nadeo.Trackmania2020Server version latest	superusercode:autogenerated/Nadeo.Trackmania2020Server/47795429-4068-4dcd-b6bb-95551c041ac7	OPEN	2023-06-13T20:02:14Z
109106	Macabacus.Macabacus version 9.5.4	khaffner:autogenerated/Macabacus.Macabacus/bdf259da-5970-401d-9c1b-13151d6f0c6e	OPEN	2023-06-07T06:24:16Z
108025	AxisCommunications.MediaControl version 7.5.41	upintheairsheep:autogenerated/AxisCommunications.MediaControl/1791f579-f0f9-43d2-8aa8-bd34e608993d	OPEN	2023-05-24T21:57:19Z
107492	GlobalMarineNet.9555UpgradeTool version 1.0	upintheairsheep:autogenerated/GlobalMarineNet.9555UpgradeTool/d9b1d086-d00f-43ca-a93d-d77eba1f2b38	OPEN	2023-05-20T04:19:41Z
107211	NanoBoyAdvance.NanoBoyAdvance version 1.7.1	superusercode:autogenerated/NanoBoyAdvance.NanoBoyAdvance/46eace2e-83e8-449c-94af-f47d078eafd0	OPEN	2023-05-18T05:57:58Z
107121	Add: Fluidsynth 2.3.2	superusercode:fluidsynth	OPEN	2023-05-17T19:58:15Z
107110	vdrift.vdrift version 2014-10-20	superusercode:autogenerated/vdrift.vdrift/0bc28bc9-b73f-40dc-8281-60544a4ccdc3	OPEN	2023-05-17T18:22:52Z
106718	Microsoft.VisualStudioCode: enable "open with code" context menu items by default	soredake:vscode_new_default_params	OPEN	2023-05-13T17:40:16Z
106696	Google.ProjectGameface version 0.3.30	upintheairsheep:autogenerated/Google.ProjectGameface/03a6a0a4-ec30-45db-9b9f-709938eb471a	OPEN	2023-05-12T23:03:43Z
106257	Samsung.EasySettingBox version 1.2.1	upintheairsheep:autogenerated/Samsung.EasySettingBox/56f0bd77-1467-4e5d-a81c-f01be287798e	OPEN	2023-05-09T02:36:44Z
106255	Autogenerated/forensic cloud.i ve/6d5b5f5e d616 468a a753 07e1f40ae5e3	upintheairsheep:autogenerated/ForensicCloud.iVe/6d5b5f5e-d616-468a-a753-07e1f40ae5e3	OPEN	2023-05-09T02:33:15Z
106252	Autogenerated/apple.i pod reset/171ca08b 8a09 4f71 a92f a50aa17b6779	upintheairsheep:autogenerated/Apple.iPodReset/171ca08b-8a09-4f71-a92f-a50aa17b6779	OPEN	2023-05-09T02:27:37Z
106249	Samsung.DataMigration version 2.0	upintheairsheep:autogenerated/Samsung.DataMigration/2b3783c3-4e6c-4c9e-bc84-87f2b910a324	OPEN	2023-05-09T02:22:32Z
106157	Google.AndroidM5Emulator version m5-rc14	upintheairsheep:autogenerated/Google.AndroidM5Emulator/809f5be4-1a6d-47a7-a274-d5fe7279f2c0	OPEN	2023-05-07T19:19:21Z
106155	Google.AndroidM3Emulator version m3-rc20a	upintheairsheep:autogenerated/Google.AndroidM3Emulator/e1692b41-c083-4814-8e8a-ffb3c21f2c63	OPEN	2023-05-07T19:16:59Z
106133	lazygamereviews.KEmulator version 1.0.3	upintheairsheep:autogenerated/lazygamereviews.KEmulator/0e772505-c19f-4ec7-9c07-3bf40f5ef8a2	OPEN	2023-05-06T23:51:55Z
102953	Andrelouis.NokiaInternalTuneEdit version 1.0	upintheairsheep:autogenerated/Andrelouis.NokiaInternalTuneEdit/f4375585-9989-403b-8bdc-b1db94db557f	OPEN	2023-04-19T21:48:06Z
102951	Andrelouis.NokiaS30MidiSim version 1.0	upintheairsheep:autogenerated/Andrelouis.NokiaS30MidiSim/50bde995-6784-4da6-a4ae-520f858d5289	OPEN	2023-04-19T21:45:35Z
94818	New package: Google.Android.SDKPlatformTools version 33.0.3	sitiom:Google.Android.SDKPlatformTools-33.0.3-4E05E834C751B3	DRAFT	2023-01-27T15:58:27Z
94782	New package: maharmstone.Ntfs2btrfs version 20220812	sitiom:maharmstone.ntfs2btrfs-20220812-88405ACACCC61B	DRAFT	2023-01-27T08:46:21Z
94697	New package: LinusDierheimer.fastfetch version 1.9.1	sitiom:LinusDierheimer.fastfetch-1.9.1-1EA3C7CE758B90	DRAFT	2023-01-26T10:32:26Z
92317	[Zip][Portable] New package: Google.DartSDK version 2.18.6	SpecterShell:Google.DartSDK-2.18.6-9F09B51A1D224B	DRAFT	2022-12-27T04:54:40Z
15446	Microsoft.IISManagerRemoteAdministration version 1.2	Megasware128:autogenerated/Microsoft.IISManagerRemoteAdministration/b2919790-a68c-44a2-acef-4975d044b78a	OPEN	2021-06-01T13:15:04Z
