148875	New version: Baidu.BaiduPinyin version 6.1.6.29	SpecterShell:Baidu.BaiduPinyin-6.1.6.29-295042334	OPEN	2024-04-12T12:11:01Z
148874	ByteDance.StreamingTool version 7.3.3	vedantmgoyal9:ByteDance.StreamingTool-7.3.3-8ce2b123-65da-4070-ad22-d542f18ee0ea	OPEN	2024-04-12T11:24:52Z
148873	115.115Chrome version 26.0.6.6	vedantmgoyal9:115.115Chrome-26.0.6.6-05fb86cd-e696-43dd-8ae4-87d7b5d76e29	OPEN	2024-04-12T11:23:31Z
148872	New version: stacklok.minder 0.0.45	stacklok:minder-0.0.45	OPEN	2024-04-12T11:16:54Z
148871	Diladele Web Filtering Proxy 3.3.0	diladele:master	OPEN	2024-04-12T11:05:24Z
148870	New package: viarotel.Escrcpy version 1.18.2	SpecterShell:viarotel.Escrcpy-1.18.2-65C85DFE	OPEN	2024-04-12T10:52:56Z
148869	Update README.md	skanda890:master	OPEN	2024-04-12T10:51:58Z
148868	New version: 115.115Chrome version 26.0.6.6	SpecterShell:115.115Chrome-26.0.6.6-1284960596	OPEN	2024-04-12T10:08:07Z
148867	New version: Kingsoft.WPSOffice.CN version 12.1.0.16729	SpecterShell:Kingsoft.WPSOffice.CN-12.1.0.16729-1715898517	OPEN	2024-04-12T09:49:43Z
148866	New version: IndigoByte.DrExplain version 6.7.1299	VD42:IndigoByte.DrExplain-6.7.1299-8976a961-a56a-4cbc-9fcf-0d178d27acb1	OPEN	2024-04-12T09:21:05Z
148865	New version: ByteDance.StreamingTool version 7.3.3	SpecterShell:ByteDance.StreamingTool-7.3.3-1294584294	OPEN	2024-04-12T09:19:08Z
148864	New version: Tutanota.Tutanota version 220.240411.0	Exorcism0666:Tutanota.Tutanota-220.240411.0-0B994F77108B4118AED10758770E9278	OPEN	2024-04-12T09:00:02Z
148863	New version: Toit.Jaguar version 1.33.0	LeonGungadinMogensen:Toit.Jaguar-1.33.0-331db640-f077-4243-908f-6da8cdbba905	OPEN	2024-04-12T08:53:20Z
148862	Modify: Tencent.WeChat version 3.9.10.19	SpecterShell:Tencent.WeChat-3.9.10.19-Modify	OPEN	2024-04-12T08:24:11Z
148861	Modify: Tencent.WeChat version 3.9.10.16	SpecterShell:Tencent.WeChat-3.9.10.16-Modify	OPEN	2024-04-12T08:23:55Z
148859	New version: ByteDance.SodaMusic version 1.6.2	SpecterShell:ByteDance.SodaMusic-1.6.2-1324982172	OPEN	2024-04-12T08:09:31Z
148858	Update SQLiteStudio	JanWerder:sqlitestudio	OPEN	2024-04-12T07:48:58Z
148857	New version: UnknownSKL.Greenlight version 2.3.1	GhoulBoii:UnknownSKL.Greenlight-2.3.1-438D92CE616D49AC89EC08E8A089AC7A	OPEN	2024-04-12T07:39:03Z
148856	Remove version: GoXLR-on-Linux.GoXLR-Utility version 1.1.0	parzival-space:remove-release/goxlr-utility-1.1.0	OPEN	2024-04-12T07:32:23Z
148855	opam 2.2.0-beta2	jonahbeckford:opam-2.2.0-beta2	OPEN	2024-04-12T07:31:52Z
148854	CloudImperiumGames.RSILauncher 2.0.0	DeusMaximus:rsi-launcher-2.0.0	OPEN	2024-04-12T07:26:52Z
148853	New version: WHTA.Tamara version 2024.0.0.16	lars-whta:WHTA.Tamara-2024.0.0.16-846daf51-4fce-4edf-879b-2f04bbc43c14	OPEN	2024-04-12T07:24:42Z
148852	New Version: Gruntwork.Terragrunt version 0.56.5	KaiKorla:master	OPEN	2024-04-12T07:22:37Z
148851	Add version: GoXLR-on-Linux.GoXLR-Utility version 1.0.6	parzival-space:GoXLR-on-Linux.GoXLR-Utility-1.0.6-81cf96c3-98b7-4619-9414-b141623922de	OPEN	2024-04-12T07:16:23Z
148850	New version: Redisant.MQTTAssistant version 2.0.3.0	SpecterShell:Redisant.MQTTAssistant-2.0.3.0-1018095150	OPEN	2024-04-12T07:11:06Z
148849	New version: Alibaba.AlibabaCloudCLI version 3.0.202	SpecterShell:Alibaba.AlibabaCloudCLI-3.0.202-521899830	OPEN	2024-04-12T07:08:44Z
148846	New version: RingCentral.RingCentral version 24.1.33.9929 (24.1.33)	SpecterShell:RingCentral.RingCentral-24.1.33.9929-336907460	OPEN	2024-04-12T06:12:23Z
148844	Update studio-cli version 24.3.0	TotTheMax:24.3.0-update-1	OPEN	2024-04-12T05:53:15Z
148842	- Updated oleg-shilo/cs-script (v4.8.15.0)	oleg-shilo:oleg-shilo_cs-script_4.8.15.0	OPEN	2024-04-12T05:16:14Z
148841	New version: Lenovo.LeAppStore version 9.0.1430.407	SpecterShell:Lenovo.LeAppStore-9.0.1430.407-906555180	OPEN	2024-04-12T05:10:27Z
148840	New version: Catsxp.Catsxp version 124.4.4.5	SpecterShell:Catsxp.Catsxp-124.4.4.5-970778973	OPEN	2024-04-12T05:09:26Z
148839	New version: TinyCraft.TinyRDM version 1.1.11	SpecterShell:TinyCraft.TinyRDM-1.1.11-737250455	OPEN	2024-04-12T04:12:01Z
148838	New version: Jianjing.XLJSCI version 2.3.9.0 (2.3.9)	SpecterShell:Jianjing.XLJSCI-2.3.9.0-179793155	OPEN	2024-04-12T04:11:26Z
148835	New version: Tencent.TencentVideo version 11.92.1411.0	SpecterShell:Tencent.TencentVideo-11.92.1411.0-928524415	OPEN	2024-04-12T03:11:13Z
148834	New version: DenoLand.Deno version 1.42.3	coolplaylinbot:DenoLand.Deno-1.42.3-1CD4CB36F2B545D6888DFF884A2CB332	OPEN	2024-04-12T02:26:55Z
148833	New version: DenoLand.Deno version 1.42.3	coolplaylinbot:DenoLand.Deno-1.42.3-8139F88677E74C0C9808BD497732D527	OPEN	2024-04-12T02:26:49Z
148832	New version: PerfectWorld.PerfectWorldArena version 1.0.24041211	SpecterShell:PerfectWorld.PerfectWorldArena-1.0.24041211-1571341740	OPEN	2024-04-12T02:18:33Z
148826	tibbo.ioninja version 5.5.1	vedantmgoyal9:tibbo.ioninja-5.5.1-0161680c-1463-48c0-87ac-c0e548a7f420	OPEN	2024-04-12T01:25:56Z
148822	New version: AdGuard.dnsproxy version 0.69.2	Exorcism0666:AdGuard.dnsproxy-0.69.2-0A2DB54EAE39481DBD893138FF9F2E4A	OPEN	2024-04-12T01:22:27Z
148818	Automatic update of Neovim.Neovim.Nightly 0.10.0	wingetbot:AutomaticUpdate_f2bf875a-888a-4b3e-a8b9-b61dcf22c39b	OPEN	2024-04-12T00:50:17Z
148810	Automatic update of ServerData.Elevate from 2.15.15 to 2.15.165.0	wingetbot:AutomaticUpdate_1b9771d9-75f3-4cf2-bb1d-08d306991f4a	OPEN	2024-04-11T23:42:43Z
148797	Testmyapp v0.0.65	Gjergj:testmyapp-v0.0.65	OPEN	2024-04-11T22:35:32Z
148787	New version: Ryujinx.Ryujinx version 1.1.1279	Exorcism0666:Ryujinx.Ryujinx-1.1.1279-976267703	OPEN	2024-04-11T21:19:14Z
148784	Automatic deletion of PerfectWorld.PerfectWorldArena 1.0.24041111	wingetbot:AutomaticUpdate_d1f06c19-e446-44f0-9a74-af5398d162b8	OPEN	2024-04-11T20:56:49Z
148783	Automatic update of PerfectWorld.PerfectWorldArena from 1.0.24041111 to 1.0.24041111.993	wingetbot:AutomaticUpdate_f9010295-502a-4529-a6fb-457579fb7979	OPEN	2024-04-11T20:51:36Z
148782	n0-computer.sendme version 0.4.1	legowerewolf:n0-computer.sendme-0.4.1-62ab4a63-238a-4460-9e75-719a0d0b7486	OPEN	2024-04-11T20:34:53Z
148780	Update GIGABYTE.GigabyteControlCenter.installer.yaml	rakleed:patch-7	OPEN	2024-04-11T20:30:22Z
148774	TechPowerUp.GPU-Z version 2.58.0	MaykGyver:master	OPEN	2024-04-11T18:48:22Z
148771	New version: Unity.Unity.2023 version 2023.2.18f1	SpecterShell:Unity.Unity.2023-2023.2.18f1-866392623	OPEN	2024-04-11T18:16:42Z
148769	Microsoft.VisualStudioCode.CLI_v1.88.1 cli	lszomoru:cliMicrosoft.VisualStudioCode.CLI_v1.88.1	OPEN	2024-04-11T18:07:41Z
148691	Ares commander 2025 sp0	graebertgmbh:AresCommander_2025_SP0	OPEN	2024-04-11T16:44:53Z
148689	chore: add latest HashiCorp Vault	dugandarinPFG:HashiCorp.Vault-1.16.1	OPEN	2024-04-11T16:27:49Z
148685	Testmyapp v0.0.64	Gjergj:testmyapp-v0.0.64	OPEN	2024-04-11T16:11:52Z
148682	Remove version: P-StSoftware.WinSSHTerm version 2.28.0	Exorcism0666:P-StSoftware.WinSSHTerm-2.28.0-8BE0E24CA7CD7986FD3EBCF0886D9F99C98989ED	OPEN	2024-04-11T15:19:37Z
148677	Remove version: PaddiM8.kalker version 2.0.4	Exorcism0666:PaddiM8.kalker-2.0.4-603B724BE8DC7A85305B3EA9762636C929EAFAD0	OPEN	2024-04-11T15:01:30Z
148676	Remove version: pnpm.pnpm version 8.15.6	Exorcism0666:pnpm.pnpm-8.15.6-C1F8082B5C7623DF7C6EC0A6E285DB7C81DF601F	OPEN	2024-04-11T14:55:31Z
148662	New version: Kingston.SSDManager version 1.5.4.5	MaanuelMM:ksm-v1.5.4.5	OPEN	2024-04-11T13:45:10Z
148650	New version: Anaconda.Anaconda3 version 2024.02-1	einar-prod:Anaconda.Anaconda3-2024.02-1-E7FEFF58	OPEN	2024-04-11T12:21:23Z
148636	New package: Lime3DS.Lime3DS version 2107	Exorcism0666:Lime3DS.Lime3DS-2107-3DDD0B2E	OPEN	2024-04-11T10:04:42Z
148634	New package: KPN.HIPINv4 version 4.3.2.6316	xhoy:KPN.HIPINv4-4.3.2.6316-df12606b-9272-473d-91d9-fa6ecc65a284	OPEN	2024-04-11T09:55:13Z
148633	New package: LibNyanpasu.clash-nyanpasu version 1.5.1	keiko233:moe.elaina.clash.nyanpasu-1.5.1-D4F22066A9854D60BF4C02967994EF50	OPEN	2024-04-11T09:41:21Z
148623	New package: Amazon.AmazonCorretto(x64) version 21.0.2.13	antongrizli:Amazon.AmazonCorretto(x64)-21.0.2.13-2bb6ec1d-62ca-4cdb-98e3-ad80ea7f4fef	OPEN	2024-04-11T07:38:10Z
148620	Microsoft.VisualStudioCode.Insiders.CLI_v1.89.0 cli	lszomoru:cliMicrosoft.VisualStudioCode.Insiders.CLI_v1.89.0	OPEN	2024-04-11T07:07:10Z
148589	Automatic deletion of SFLinux.Jami.Beta 1.0.8838.242	wingetbot:AutomaticUpdate_8f763545-51f3-4211-83cf-4f65f08cc738	OPEN	2024-04-10T23:56:43Z
148588	Automatic update of PLaSK to 2024.04.10	macdems:2024.04.10	OPEN	2024-04-10T23:53:44Z
148577	Automatic update of Cisco.Webex 44.3.0.28993	wingetbot:AutomaticUpdate_8cdf9be9-d790-4799-910c-8eb73015e7a1	OPEN	2024-04-10T23:01:54Z
148571	Automatic update of GiulioSorrentino.WinDateFrom 4.6	wingetbot:AutomaticUpdate_cd10268a-b644-4918-936e-1fb9b86862db	OPEN	2024-04-10T22:05:53Z
148569	Automatic update of GiulioSorrentino.Latorredibabele 3.0	wingetbot:AutomaticUpdate_96e737dd-4351-4e1e-acef-5ec815a9260f	OPEN	2024-04-10T22:05:41Z
148555	Update version: GiulioSorrentino.Latorredibabele version 3.0	numerunix:GiulioSorrentino.Latorredibabele-3.0-b20982ca-b94e-42b4-b0f8-8c383c1539d5	OPEN	2024-04-10T21:06:52Z
148551	Update version: GiulioSorrentino.WinDateFrom version 4.6	numerunix:GiulioSorrentino.WinDateFrom-4.6-c742c326-c867-4c12-bb77-e379ba6f2232	OPEN	2024-04-10T21:02:18Z
148526	New package: XlightFTP.XlightFTP version 3.9.4.1	Exorcism0666:XlightFTP.XlightFTP-3.9.4.1-946ec51d-bd2b-41b5-bb8a-f82c882ebbc0	OPEN	2024-04-10T16:40:27Z
148523	JackieLiu.NotepadsApp version 1.5.4.0	vedantmgoyal9:JackieLiu.NotepadsApp-1.5.4.0-0701032e-9308-4173-ae8c-be84a6029403	OPEN	2024-04-10T16:33:36Z
148516	New package: Microsoft.AzureInformationProtection version 2.18.26.0	Exorcism0666:Microsoft.AzureInformationProtection-2.18.26.0-48b448c6-6a0f-4b18-b2e0-220c4d2b89ba	OPEN	2024-04-10T15:25:55Z
148448	New version: LGUG2Z.whkd version 0.2.1	LGUG2Z:LGUG2Z.whkd-0.2.1-6D2BB58129814BF509FE49F04AFB9B60AECD66C4	OPEN	2024-04-10T00:04:42Z
148442	Erlang.ErlangOTP version 24.3.4.17	vedantmgoyal9:Erlang.ErlangOTP-24.3.4.17-5900a303-6405-4b83-b3d8-1ba73d05bf17	OPEN	2024-04-09T23:26:22Z
148436	Automatic deletion of Cisco.CiscoWebexMeetings 44.3.0.146	wingetbot:AutomaticUpdate_8d70cd21-2666-4059-815b-9d083ac64ab5	OPEN	2024-04-09T23:05:05Z
148407	Automatic update of ArobasMusic.GuitarPro.8 from 8.1.1-17 to 8.1.2.27	wingetbot:AutomaticUpdate_f7eea850-4b9d-43e1-901d-9665fd98d324	OPEN	2024-04-09T20:23:10Z
148399	Automatic deletion of DuoSecurity.Duo2FAAuthenticationforWindows 4.3.0.4367	wingetbot:AutomaticUpdate_723df426-c805-4ca2-accd-ceb585242a26	OPEN	2024-04-09T19:50:31Z
148396	Automatic deletion of Doist.Todoist 9.1.1	wingetbot:AutomaticUpdate_91464777-7e93-471b-b0b2-596a11b7ea77	OPEN	2024-04-09T19:38:14Z
148381	Microsoft.VisualStudio.2022.Community.Preview version 17.10.0	edwardskrod:autogenerated/Microsoft.VisualStudio.2022.Community.Preview/2651d553-7719-4cb3-be61-6323610a395f	OPEN	2024-04-09T18:02:19Z
148380	Microsoft.VisualStudio.2022.Professional.Preview version 17.10.0	edwardskrod:autogenerated/Microsoft.VisualStudio.2022.Professional.Preview/64217eeb-2a59-4aa9-99c6-8eddae18b18e	OPEN	2024-04-09T18:02:08Z
148379	Microsoft.VisualStudio.2022.Enterprise.Preview version 17.10.0	edwardskrod:autogenerated/Microsoft.VisualStudio.2022.Enterprise.Preview/4b52f1a0-c916-42af-9c7b-bccd41d59848	OPEN	2024-04-09T18:01:57Z
148372	Microsoft.VisualStudio.2022.Community version 17.9.6	edwardskrod:autogenerated/Microsoft.VisualStudio.2022.Community/6c2ca371-ce27-4fcd-869a-37939a15d4e8	OPEN	2024-04-09T17:21:41Z
148351	New version: Tencent.QQ version 9.7.23.240409	SpecterShell:Tencent.QQ-9.7.23.240409-1490332211	OPEN	2024-04-09T14:13:46Z
148292	New version: evilmartians.lefthook version 1.6.9	mrexox:evilmartians.lefthook-1.6.9-827F860434CD2D160C8E4EBF851890917EDCC383	OPEN	2024-04-09T08:43:26Z
148247	Appest.Dida version 5.3.0.0	vedantmgoyal9:Appest.Dida-5.3.0.0-9d38f70f-7ee5-44fc-90c6-cef15a84ef2f	OPEN	2024-04-08T23:25:45Z
148233	New version: ente-io.photos-desktop version 1.6.63	Trenly:ente-io.photos-desktop-1.6.63-96847677	OPEN	2024-04-08T22:41:02Z
148226	New Package: ente-io.ente.Auth version 2.0.50+250	Trenly:ente-io.ente-2.0.50-DD5DCF68	OPEN	2024-04-08T22:20:18Z
148219	New version: Microsoft.VisualStudio.2022.Community version 17.9.5	Trenly:Microsoft.VisualStudio.2022.Community-17.9.5-0A73C432	OPEN	2024-04-08T20:56:59Z
148192	New version: Suwayomi.Tachidesk-JUI version 1.3.3	TejasMate:Suwayomi.Tachidesk-JUI-1.3.3-F913D8DCFA6D432ABA86F1D0CD244E61	OPEN	2024-04-08T14:41:20Z
148151	Remove: AxisCommunicationsAB.AXISCameraStation version 5.57.22317	coolplaylinbot:AxisCommunicationsAB.AXISCameraStation-5.57.22317-D69A76EBA3B6BA274B820EEB0402F35D903288E6	OPEN	2024-04-08T04:44:16Z
148144	Remove: ArchiMateTool.Archi version 5.2.0	coolplaylinbot:ArchiMateTool.Archi-5.2.0-F816122883296B76247D95F3D966E186AC579BE3	OPEN	2024-04-08T03:34:37Z
148132	Remove: Dropbox.Dash version 2.92.0	coolplaylinbot:Dropbox.Dash-2.92.0-A6AB7AAA850772161EEA0959FBF5D8B0E750F487	OPEN	2024-04-08T02:07:11Z
148112	New version: RustDesk.RustDesk version 1.2.3-2	SpecterShell:RustDesk.RustDesk-1.2.3-2-644325093	OPEN	2024-04-07T22:31:14Z
148086	New version: TableClothProject.TableCloth version 1.13.0	rkttu:TableClothProject.TableCloth-1.13.0-5ab0002c-3682-4f6e-a10d-010b75e6bff8	OPEN	2024-04-07T12:28:13Z
148053	Automatic update of Stardock.Start10 from 1.9.7 to 9.5.3.0	wingetbot:AutomaticUpdate_b4254be3-59f5-4028-b688-b9ee05da6fe0	OPEN	2024-04-07T00:48:34Z
148028	New package: Aurelitec.Thumbico version 1.5.0.25	RalfEs73:Aurelitec.Thumbico-1.5.0.25-7ff585f1-1257-4ca3-ba53-aadc28a88dc8	OPEN	2024-04-06T19:31:43Z
148013	New Version: Samsung.SamsungMagician version 8.1.0	og-mrk:new-manifest-version/Samsung.SamsungMagician-version8.1.0	DRAFT	2024-04-06T14:09:12Z
147941	Automatic deletion of evernote.evernote 10.83.4.20240404123109	wingetbot:AutomaticUpdate_3703173f-a30a-47e9-b3d3-54749fced706	OPEN	2024-04-05T20:56:39Z
147901	New version: GOMLab.GOMPlayer version 2.3.95.5365	Trenly:GOMLab.GOMPlayer-2.3.95.5365-9A9B8F6D	OPEN	2024-04-05T14:31:39Z
147898	New version: Ubisoft.Connect version 151.2.11050	Trenly:Ubisoft.Connect-151.2.11050-E4B28445	OPEN	2024-04-05T14:25:27Z
147897	New version: Sigil-Ebook.PageEdit version 2.1.0	Trenly:Sigil-Ebook.PageEdit-2.1.0-7111490	OPEN	2024-04-05T14:21:53Z
147829	Automatic update of Nvidia.Omniverse from 1.9.8 to 1.9.11.2724	wingetbot:AutomaticUpdate_659919ff-e91a-4ac7-8f6c-a69f033090e3	OPEN	2024-04-05T01:27:34Z
147758	Microsoft.VisualStudioCode.Insiders_v1.89.0 desktop	lszomoru:desktopMicrosoft.VisualStudioCode.Insiders_v1.89.0	OPEN	2024-04-04T20:05:02Z
147679	New version: ente-io.ente version 2.0.50	Exorcism0666:ente-io.ente-2.0.50-81718C2F59994150A4E2BEDA24EE5C4A	OPEN	2024-04-04T08:24:17Z
147672	New package: tacitdynamics.foldersync-desktop-production version 1.1.0	Exorcism0666:tacitdynamics.foldersync-desktop-production-1.1.0-D9E8D7D0641B4DFAADD068D1471218ED	OPEN	2024-04-04T06:52:14Z
147569	New version: github.com.benny93.kafui 0.1.23	Benny93:master	OPEN	2024-04-03T20:51:13Z
147377	New version: Microsoft.VisualStudio.2022.Community version 17.9.5	ccorrion:Microsoft.VisualStudio.2022.Community-17.9.5-37f868ac-f6d6-486a-8bd5-0fde19a15ca0	OPEN	2024-04-02T19:46:09Z
147376	New package: FrenchGithubUser.Hatt version 0.3.5	soredake:FrenchGithubUser.Hatt-0.3.5-725E156C080F4C598A9DD6622D522FB2	OPEN	2024-04-02T19:45:10Z
147354	[PHP] Add PHP 8.0, 8.1, 8.2, and 8.3	PHPWatch:php	OPEN	2024-04-02T13:29:46Z
147205	Version Update: TeamSonarr.Sonarr version 4.0.3.1413	babblebauble:TeamSonarr.Sonarr-4.0.3.1413-1e4c7860-586f-44a6-9a60-8e98bbdb28a6	OPEN	2024-04-01T11:23:16Z
147089	Automatic update of Piriform.CCleaner.ProTrial from 6.19.0.10858 to 6.22.0.10977	wingetbot:AutomaticUpdate_5d70bc95-320f-476e-877b-62e318768ff6	OPEN	2024-03-30T20:40:27Z
147057	New version: huanghongxun.HelloMinecraftLauncher version 3.5.7.245	TejasMate:huanghongxun.HelloMinecraftLauncher-3.5.7.245-C19C7AF554FF4677A1FF48E2F61F585C	OPEN	2024-03-30T12:22:55Z
146956	New package: cjmurph.PlexService version 1.2.3	Exorcism0666:cjmurph.PlexService-1.2.3-49594e52-2bd9-4fd7-8b11-4d2c2f52b944	OPEN	2024-03-29T17:00:37Z
146902	Automatic update of Parsec.Parsec from 150-92a to 150.93.2.0	wingetbot:AutomaticUpdate_d22961f1-19ef-437e-a636-2ec8440870fe	OPEN	2024-03-29T02:20:32Z
146880	New version: Beeper.Beeper version 3.102.10	SpecterShell:Beeper.Beeper-3.102.10-F8876EB6	OPEN	2024-03-28T23:41:54Z
146786	New package: Teclib'.GLPIAgent1.7.2 version 1.7.2	MaxKoerck:Teclib'.GLPIAgent1.7.2-1.7.2-90ba4a94-3b18-4d89-8b5d-d8425a01196f	OPEN	2024-03-28T10:08:43Z
146751	Update version: Aserto.Topaz version 0.31.10	Exorcism0666:Aserto.Topaz-0.31.10-3C4BC16B9E81403DA659567D607BF9BC	OPEN	2024-03-28T01:18:44Z
146417	New package: CelestialCartoGraphers.Loenn version 0.7.8	vikingnope:CelestialCartoGraphers.Loenn-0.7.8-4810378C84954B81BDBCA6579F473D31	OPEN	2024-03-25T20:06:48Z
146251	New version: Apache.Groovy.4 version 4.0.20	vikingnope:Apache.Groovy.4-4.0.20-43CAF96EF6A84E7793BB3D3DB860BF55	OPEN	2024-03-24T21:03:35Z
146088	New package: Teclib'.GLPIAgent1.7.1 version 1.7.1	MaxKoerck:Teclib'.GLPIAgent1.7.1-1.7.1-db39a5f4-4fbf-402e-9f7c-568446233bf6	OPEN	2024-03-22T23:13:58Z
146059	New version: AirDroid.AirDroid version 3.7.2.1	vikingnope:AirDroid.AirDroid-3.7.2.1-56AF2AD4F0F342AAB8FE2C9F6C1C8C63	OPEN	2024-03-22T20:20:21Z
146058	New version: HulubuluSoftware.AdvancedRenamer version 3.94	vikingnope:HulubuluSoftware.AdvancedRenamer-3.94-141CCCB56B084C5AA64B7AEE8160069A	OPEN	2024-03-22T20:17:51Z
145562	New version: LyX.LyX version 2.3.7.0	vikingnope:LyX.LyX-2.3.7.0-da791c5b-93d6-45fe-876f-3ee38ea717b1	OPEN	2024-03-20T21:09:15Z
145232	New version: OpslyCloud.opsly-cli version v0.0.1-alpha.19	Opsly:release-v0.0.1-alpha.19	OPEN	2024-03-19T15:58:02Z
145196	New package: PeteAndJohn.FSUIPC7 version 7.4.9	vikingnope:PeteAndJohn.FSUIPC7-7.4.9-1A84A80AA56E44E19A52F380DB81EC2D	OPEN	2024-03-19T05:01:07Z
145152	New package: Sapphire.TriXX version 9.7.0	vikingnope:Sapphire.TriXX-9.7.0-7525EA3AB9F1493AA0BFD43B720B3A22	OPEN	2024-03-18T22:41:40Z
145045	Remove: Julialang.Julia.LTS version 1.6.7	SpecterShell:Julialang.Julia.LTS-1.6.7-Remove	DRAFT	2024-03-18T05:50:29Z
145044	Remove: Julialang.Julia version 1.9.4	SpecterShell:Julialang.Julia-1.9.4-Remove	DRAFT	2024-03-18T05:44:53Z
145043	Remove: Julialang.Julia version 1.9.3	SpecterShell:Julialang.Julia-1.9.3-Remove	DRAFT	2024-03-18T05:44:44Z
145042	Remove: Julialang.Julia version 1.9.2	SpecterShell:Julialang.Julia-1.9.2-Remove	DRAFT	2024-03-18T05:44:35Z
145041	Remove: Julialang.Julia version 1.9.1	SpecterShell:Julialang.Julia-1.9.1-Remove	DRAFT	2024-03-18T05:44:26Z
145040	Remove: Julialang.Julia version 1.9.0	SpecterShell:Julialang.Julia-1.9.0-Remove	DRAFT	2024-03-18T05:44:17Z
145039	Remove: Julialang.Julia version 1.8.5	SpecterShell:Julialang.Julia-1.8.5-Remove	DRAFT	2024-03-18T05:44:09Z
145038	Remove: Julialang.Julia version 1.8.4	SpecterShell:Julialang.Julia-1.8.4-Remove	DRAFT	2024-03-18T05:44:00Z
145037	Remove: Julialang.Julia version 1.8.3	SpecterShell:Julialang.Julia-1.8.3-Remove	DRAFT	2024-03-18T05:43:51Z
145036	Remove: Julialang.Julia version 1.8.2	SpecterShell:Julialang.Julia-1.8.2-Remove	DRAFT	2024-03-18T05:43:43Z
145035	Remove: Julialang.Julia version 1.8.1	SpecterShell:Julialang.Julia-1.8.1-Remove	DRAFT	2024-03-18T05:43:34Z
145034	Remove: Julialang.Julia version 1.8.0	SpecterShell:Julialang.Julia-1.8.0-Remove	DRAFT	2024-03-18T05:43:24Z
145033	Remove: Julialang.Julia version 1.7.3	SpecterShell:Julialang.Julia-1.7.3-Remove	DRAFT	2024-03-18T05:43:16Z
145032	Remove: Julialang.Julia version 1.7.2	SpecterShell:Julialang.Julia-1.7.2-Remove	DRAFT	2024-03-18T05:43:07Z
145031	Remove: Julialang.Julia version 1.7.1	SpecterShell:Julialang.Julia-1.7.1-Remove	DRAFT	2024-03-18T05:42:58Z
145030	Remove: Julialang.Julia version 1.7.0	SpecterShell:Julialang.Julia-1.7.0-Remove	DRAFT	2024-03-18T05:42:50Z
145029	Remove: Julialang.Julia version 1.6.2	SpecterShell:Julialang.Julia-1.6.2-Remove	DRAFT	2024-03-18T05:42:41Z
145028	Remove: Julialang.Julia version 1.6.1	SpecterShell:Julialang.Julia-1.6.1-Remove	DRAFT	2024-03-18T05:42:32Z
145027	Remove: Julialang.Julia version 1.5.4	SpecterShell:Julialang.Julia-1.5.4-Remove	DRAFT	2024-03-18T05:42:23Z
145026	Remove: Julialang.Julia version 1.5.1	SpecterShell:Julialang.Julia-1.5.1-Remove	DRAFT	2024-03-18T05:42:14Z
145025	Remove: Julialang.Julia version 1.4.2	SpecterShell:Julialang.Julia-1.4.2-Remove	DRAFT	2024-03-18T05:42:06Z
145024	Remove: Julialang.Julia version 1.4.1	SpecterShell:Julialang.Julia-1.4.1-Remove	DRAFT	2024-03-18T05:41:57Z
145023	Remove: Julialang.Julia version 1.10.0	SpecterShell:Julialang.Julia-1.10.0-Remove	DRAFT	2024-03-18T05:41:48Z
144902	Kingsoft.KingsoftPDF 12.6.0.15502	stevenlele:wpspdf-15502	OPEN	2024-03-16T19:35:13Z
144861	Add version: OpenJS.NodeJS.LTS version 6.12.2	coolplaylinbot:OpenJS.NodeJS.LTS-6.12.2-4D8B77085F734302BC4B6E319FC41870	OPEN	2024-03-16T06:18:33Z
144855	Add version: OpenJS.NodeJS.LTS version 4.2.0	coolplaylinbot:OpenJS.NodeJS.LTS-4.2.0-C557841D9E8440CB9C1F308982BF6EBA	OPEN	2024-03-16T04:26:41Z
144854	Add version: OpenJS.NodeJS.LTS version 4.2.1	coolplaylinbot:OpenJS.NodeJS.LTS-4.2.1-E15ADB6ADE8D48D8BD3B9B2672B9A836	OPEN	2024-03-16T04:26:38Z
144853	Add version: OpenJS.NodeJS.LTS version 4.2.2	coolplaylinbot:OpenJS.NodeJS.LTS-4.2.2-DF0BDC9D7FBC410681B8A0115907A0CA	OPEN	2024-03-16T04:26:35Z
144852	Add version: OpenJS.NodeJS.LTS version 4.2.3	coolplaylinbot:OpenJS.NodeJS.LTS-4.2.3-DB7C3FBC3CC743BCA4617BE28B644F44	OPEN	2024-03-16T04:26:33Z
144851	Add version: OpenJS.NodeJS.LTS version 4.2.4	coolplaylinbot:OpenJS.NodeJS.LTS-4.2.4-7C083A2D4E1A4519B7B12DEEFEFF25CE	OPEN	2024-03-16T04:26:30Z
144850	Add version: OpenJS.NodeJS.LTS version 4.2.5	coolplaylinbot:OpenJS.NodeJS.LTS-4.2.5-D895CD3087E4404E82FA9AA4B2F9D7F2	OPEN	2024-03-16T04:26:27Z
144849	Add version: OpenJS.NodeJS.LTS version 4.2.6	coolplaylinbot:OpenJS.NodeJS.LTS-4.2.6-562C887A8A434CD0A375B74EC17BB2B1	OPEN	2024-03-16T04:26:24Z
144848	Add version: OpenJS.NodeJS.LTS version 4.3.0	coolplaylinbot:OpenJS.NodeJS.LTS-4.3.0-E927F42733354195AF8FFAF5E2F6426F	OPEN	2024-03-16T04:26:21Z
144847	Add version: OpenJS.NodeJS.LTS version 4.3.1	coolplaylinbot:OpenJS.NodeJS.LTS-4.3.1-DCC9DE4F2483461992A26135F2ACC1D6	OPEN	2024-03-16T04:26:18Z
144846	Add version: OpenJS.NodeJS.LTS version 4.3.2	coolplaylinbot:OpenJS.NodeJS.LTS-4.3.2-DB4F215942B348C1A41040EEC40363D5	OPEN	2024-03-16T04:26:15Z
144845	Add version: OpenJS.NodeJS.LTS version 4.4.2	coolplaylinbot:OpenJS.NodeJS.LTS-4.4.2-04955696ECFA48DC879078BA37B172CA	OPEN	2024-03-16T04:26:08Z
144844	Add version: OpenJS.NodeJS.LTS version 4.4.3	coolplaylinbot:OpenJS.NodeJS.LTS-4.4.3-90D3BE43C335454CABD4CFA7F033EFB8	OPEN	2024-03-16T04:26:05Z
144843	Add version: OpenJS.NodeJS.LTS version 4.4.4	coolplaylinbot:OpenJS.NodeJS.LTS-4.4.4-D54E3E005EFF4C1E90641EE16F1BA206	OPEN	2024-03-16T04:26:02Z
144842	Add version: OpenJS.NodeJS.LTS version 4.4.5	coolplaylinbot:OpenJS.NodeJS.LTS-4.4.5-CAEF18DEEC134CDDB8E8DE6267A698FE	OPEN	2024-03-16T04:25:59Z
144841	Add version: OpenJS.NodeJS.LTS version 4.4.6	coolplaylinbot:OpenJS.NodeJS.LTS-4.4.6-E1CAB24D670348F8B1F7BDB0D4417B9C	OPEN	2024-03-16T04:25:57Z
144840	Add version: OpenJS.NodeJS.LTS version 4.4.7	coolplaylinbot:OpenJS.NodeJS.LTS-4.4.7-4DFA123AC3BA426889D4B8817CD1B6F5	OPEN	2024-03-16T04:25:54Z
144839	Add version: OpenJS.NodeJS.LTS version 4.5.0	coolplaylinbot:OpenJS.NodeJS.LTS-4.5.0-AF31A353164A4F8696A494434CEACF85	OPEN	2024-03-16T04:25:51Z
144838	Add version: OpenJS.NodeJS.LTS version 4.6.0	coolplaylinbot:OpenJS.NodeJS.LTS-4.6.0-A0C33EAEA2514FB5AA35EC4458CAD0CF	OPEN	2024-03-16T04:25:49Z
144837	Add version: OpenJS.NodeJS.LTS version 4.6.1	coolplaylinbot:OpenJS.NodeJS.LTS-4.6.1-12E16E886095427185CF663068FF2060	OPEN	2024-03-16T04:25:46Z
144836	Add version: OpenJS.NodeJS.LTS version 4.6.2	coolplaylinbot:OpenJS.NodeJS.LTS-4.6.2-D8571E9F4B3F407498CDDFC1BB36054B	OPEN	2024-03-16T04:25:43Z
144835	Add version: OpenJS.NodeJS.LTS version 4.7.0	coolplaylinbot:OpenJS.NodeJS.LTS-4.7.0-9C6CCC36F6B247FF980A27CDFEEE1532	OPEN	2024-03-16T04:25:41Z
144834	Add version: OpenJS.NodeJS.LTS version 4.7.1	coolplaylinbot:OpenJS.NodeJS.LTS-4.7.1-6F765DBC91284313AE0BB44580EFFBA8	OPEN	2024-03-16T04:25:38Z
144833	Add version: OpenJS.NodeJS.LTS version 4.7.2	coolplaylinbot:OpenJS.NodeJS.LTS-4.7.2-913DBAE2D09B482FA3C3177DAD0E0068	OPEN	2024-03-16T04:25:35Z
144832	Add version: OpenJS.NodeJS.LTS version 4.7.3	coolplaylinbot:OpenJS.NodeJS.LTS-4.7.3-9AB4A9C14D024CBB8E5CA2DC582A3261	OPEN	2024-03-16T04:25:32Z
144831	Add version: OpenJS.NodeJS.LTS version 4.8.0	coolplaylinbot:OpenJS.NodeJS.LTS-4.8.0-D159C53DEB9B45E999656CFB4174130E	OPEN	2024-03-16T04:25:29Z
144830	Add version: OpenJS.NodeJS.LTS version 4.8.1	coolplaylinbot:OpenJS.NodeJS.LTS-4.8.1-164D84BCC86945F987F166246C4830E8	OPEN	2024-03-16T04:25:26Z
144829	Add version: OpenJS.NodeJS.LTS version 4.8.2	coolplaylinbot:OpenJS.NodeJS.LTS-4.8.2-04BA7336D79642EE8BAAB5F405B5560B	OPEN	2024-03-16T04:25:23Z
144828	Add version: OpenJS.NodeJS.LTS version 4.8.3	coolplaylinbot:OpenJS.NodeJS.LTS-4.8.3-9E5843BE6D134ABF9E91D3251AD78544	OPEN	2024-03-16T04:25:19Z
144827	Add version: OpenJS.NodeJS.LTS version 4.8.4	coolplaylinbot:OpenJS.NodeJS.LTS-4.8.4-E3E476334DCA45E09B305BE7F368430E	OPEN	2024-03-16T04:25:16Z
144826	Add version: OpenJS.NodeJS.LTS version 4.8.5	coolplaylinbot:OpenJS.NodeJS.LTS-4.8.5-67F764CC503A4AA9BE680DEE53CB9BBE	OPEN	2024-03-16T04:25:13Z
144825	Add version: OpenJS.NodeJS.LTS version 4.9.0	coolplaylinbot:OpenJS.NodeJS.LTS-4.9.0-7ABA111D3A334976A3BC9ED97EE8FC3E	OPEN	2024-03-16T04:25:05Z
144824	Add version: OpenJS.NodeJS.LTS version 4.9.1	coolplaylinbot:OpenJS.NodeJS.LTS-4.9.1-F9EA5A6E5C96486992F66F4F138D4038	OPEN	2024-03-16T04:25:02Z
144823	Add version: OpenJS.NodeJS.LTS version 6.9.0	coolplaylinbot:OpenJS.NodeJS.LTS-6.9.0-AE5D07B1D1DF461CB4EDB38A1BBEF252	OPEN	2024-03-16T04:25:00Z
144822	Add version: OpenJS.NodeJS.LTS version 6.9.1	coolplaylinbot:OpenJS.NodeJS.LTS-6.9.1-D97CF833C4D348DA8686654001EC8666	OPEN	2024-03-16T04:24:57Z
144821	Add version: OpenJS.NodeJS.LTS version 6.9.2	coolplaylinbot:OpenJS.NodeJS.LTS-6.9.2-BBB34615E6404469B3DD583778C17693	OPEN	2024-03-16T04:24:54Z
144820	Add version: OpenJS.NodeJS.LTS version 6.9.3	coolplaylinbot:OpenJS.NodeJS.LTS-6.9.3-D87057F2A1BB45BDA53F7F805628B2A5	OPEN	2024-03-16T04:24:51Z
144819	Add version: OpenJS.NodeJS.LTS version 6.9.4	coolplaylinbot:OpenJS.NodeJS.LTS-6.9.4-A63460E167C948E0839F095FD6CBF177	OPEN	2024-03-16T04:24:49Z
144818	Add version: OpenJS.NodeJS.LTS version 6.9.5	coolplaylinbot:OpenJS.NodeJS.LTS-6.9.5-8601AAE2A63D4577AD8B4747B5A196E0	OPEN	2024-03-16T04:24:46Z
144817	Add version: OpenJS.NodeJS.LTS version 6.10.0	coolplaylinbot:OpenJS.NodeJS.LTS-6.10.0-49FA151DBDE6491DB9E089E4BE5E243D	OPEN	2024-03-16T04:24:43Z
144816	Add version: OpenJS.NodeJS.LTS version 6.10.1	coolplaylinbot:OpenJS.NodeJS.LTS-6.10.1-D94F471410FB4F8680199C55877EB8E4	OPEN	2024-03-16T04:24:40Z
144815	Add version: OpenJS.NodeJS.LTS version 6.10.2	coolplaylinbot:OpenJS.NodeJS.LTS-6.10.2-F3A7ABA4209E451B969C1F824D8A4987	OPEN	2024-03-16T04:24:37Z
144814	Add version: OpenJS.NodeJS.LTS version 6.10.3	coolplaylinbot:OpenJS.NodeJS.LTS-6.10.3-D3E4E755D44C495FB96B053B5A53F946	OPEN	2024-03-16T04:24:35Z
144813	Add version: OpenJS.NodeJS.LTS version 6.11.0	coolplaylinbot:OpenJS.NodeJS.LTS-6.11.0-ABB6CB3D7BF84AB7AD9E3D4A31BF2C14	OPEN	2024-03-16T04:24:31Z
144812	Add version: OpenJS.NodeJS.LTS version 6.11.1	coolplaylinbot:OpenJS.NodeJS.LTS-6.11.1-D883DBFEDE344DFC9FCD31BFCAD446D9	OPEN	2024-03-16T04:24:29Z
144811	Add version: OpenJS.NodeJS.LTS version 6.11.2	coolplaylinbot:OpenJS.NodeJS.LTS-6.11.2-B436258B94504B87AA4E277AAA2F5BEE	OPEN	2024-03-16T04:24:26Z
144810	Add version: OpenJS.NodeJS.LTS version 6.11.3	coolplaylinbot:OpenJS.NodeJS.LTS-6.11.3-0850E5AD83524AE3835A7F9EA47D9DF3	OPEN	2024-03-16T04:24:23Z
144809	Add version: OpenJS.NodeJS.LTS version 6.11.4	coolplaylinbot:OpenJS.NodeJS.LTS-6.11.4-37440D49EDF14471AB454C7935BF018E	OPEN	2024-03-16T04:24:21Z
144808	Add version: OpenJS.NodeJS.LTS version 6.11.5	coolplaylinbot:OpenJS.NodeJS.LTS-6.11.5-D962DAAF95A5492AB8AEE3AB1AFCA741	OPEN	2024-03-16T04:24:18Z
144807	Add version: OpenJS.NodeJS.LTS version 6.12.0	coolplaylinbot:OpenJS.NodeJS.LTS-6.12.0-A67F2AB2A4214377BFA2F0F2E936FCBD	OPEN	2024-03-16T04:24:15Z
144806	Add version: OpenJS.NodeJS.LTS version 6.12.1	coolplaylinbot:OpenJS.NodeJS.LTS-6.12.1-6C3DC03167064BAFBE238FBB7AFDBDD1	OPEN	2024-03-16T04:24:12Z
144805	Add version: OpenJS.NodeJS.LTS version 6.13.0	coolplaylinbot:OpenJS.NodeJS.LTS-6.13.0-7811A75C93774631BDF36BFC273D3410	OPEN	2024-03-16T04:24:03Z
144804	Add version: OpenJS.NodeJS.LTS version 6.13.1	coolplaylinbot:OpenJS.NodeJS.LTS-6.13.1-EE82FB2ADD4E4F97807FC6CE93EA82A9	OPEN	2024-03-16T04:24:00Z
144803	Add version: OpenJS.NodeJS.LTS version 6.14.0	coolplaylinbot:OpenJS.NodeJS.LTS-6.14.0-2A3BD72A1EF64363BF15E03A90669C08	OPEN	2024-03-16T04:23:57Z
144802	Add version: OpenJS.NodeJS.LTS version 6.14.1	coolplaylinbot:OpenJS.NodeJS.LTS-6.14.1-AAE44F31F49C4D8F8BC3195AA6B13AB2	OPEN	2024-03-16T04:23:54Z
144801	Add version: OpenJS.NodeJS.LTS version 6.14.2	coolplaylinbot:OpenJS.NodeJS.LTS-6.14.2-540EC340836F4A088B507E220B4EE7A1	OPEN	2024-03-16T04:23:52Z
144800	Add version: OpenJS.NodeJS.LTS version 6.14.3	coolplaylinbot:OpenJS.NodeJS.LTS-6.14.3-F856838B97BC49F09DC0192FB2DEC082	OPEN	2024-03-16T04:23:49Z
144799	Add version: OpenJS.NodeJS.LTS version 6.14.4	coolplaylinbot:OpenJS.NodeJS.LTS-6.14.4-74EBA0E8EB774E3EB1FD74F39AEE0180	OPEN	2024-03-16T04:23:46Z
144798	Add version: OpenJS.NodeJS.LTS version 6.15.0	coolplaylinbot:OpenJS.NodeJS.LTS-6.15.0-D0E421ACFA1C484199B331DF02C3CE03	OPEN	2024-03-16T04:23:43Z
144797	Add version: OpenJS.NodeJS.LTS version 6.15.1	coolplaylinbot:OpenJS.NodeJS.LTS-6.15.1-DCE8EE7B165D42C6A155778918FBCA62	OPEN	2024-03-16T04:23:40Z
144796	Add version: OpenJS.NodeJS.LTS version 6.16.0	coolplaylinbot:OpenJS.NodeJS.LTS-6.16.0-E11C0EEFCA114D39AAD26D9DFA9FDF99	OPEN	2024-03-16T04:23:36Z
144795	Add version: OpenJS.NodeJS.LTS version 6.17.0	coolplaylinbot:OpenJS.NodeJS.LTS-6.17.0-1C267C3406C948A197E15AF813206BE9	OPEN	2024-03-16T04:23:33Z
144794	Add version: OpenJS.NodeJS.LTS version 6.17.1	coolplaylinbot:OpenJS.NodeJS.LTS-6.17.1-12471C9F70EF4A5B81D014E5FA9F1EA2	OPEN	2024-03-16T04:23:30Z
144793	Add version: OpenJS.NodeJS.LTS version 8.9.0	coolplaylinbot:OpenJS.NodeJS.LTS-8.9.0-93C4D134278F441EA597A00FBF1B303A	OPEN	2024-03-16T04:23:28Z
144792	Add version: OpenJS.NodeJS.LTS version 8.9.1	coolplaylinbot:OpenJS.NodeJS.LTS-8.9.1-EBBFBC61D3E24A36BABB9924A3594A66	OPEN	2024-03-16T04:23:25Z
144791	Add version: OpenJS.NodeJS.LTS version 8.9.2	coolplaylinbot:OpenJS.NodeJS.LTS-8.9.2-3601471C03DD44CC8F9530BA44DFA7B0	OPEN	2024-03-16T04:23:22Z
144790	Add version: OpenJS.NodeJS.LTS version 8.9.3	coolplaylinbot:OpenJS.NodeJS.LTS-8.9.3-40A01CC8A03346D9B93362552516F0E2	OPEN	2024-03-16T04:23:19Z
144789	Add version: OpenJS.NodeJS.LTS version 8.9.4	coolplaylinbot:OpenJS.NodeJS.LTS-8.9.4-8535BEF3CEA54B91B8CEE5C4A9BAAC84	OPEN	2024-03-16T04:23:16Z
144788	Add version: OpenJS.NodeJS.LTS version 8.10.0	coolplaylinbot:OpenJS.NodeJS.LTS-8.10.0-9D42D4FAD76042FE9E590425E06FAB16	OPEN	2024-03-16T04:23:14Z
144786	Add version: OpenJS.NodeJS.LTS version 8.11.1	coolplaylinbot:OpenJS.NodeJS.LTS-8.11.1-1E031C3A5D2B4400BD7DB51422A82528	OPEN	2024-03-16T04:23:08Z
144785	Add version: OpenJS.NodeJS.LTS version 8.11.4	coolplaylinbot:OpenJS.NodeJS.LTS-8.11.4-08980EE47E124A22B6464EC3A0C5793F	OPEN	2024-03-16T04:23:00Z
144784	Add version: OpenJS.NodeJS.LTS version 8.12.0	coolplaylinbot:OpenJS.NodeJS.LTS-8.12.0-467E21A2201A40AD828B8E264BCCBB23	OPEN	2024-03-16T04:22:58Z
144783	Add version: OpenJS.NodeJS.LTS version 8.13.0	coolplaylinbot:OpenJS.NodeJS.LTS-8.13.0-CBAE1A756FFC4E5FB05FD0695D2720AA	OPEN	2024-03-16T04:22:55Z
144782	Add version: OpenJS.NodeJS.LTS version 8.14.0	coolplaylinbot:OpenJS.NodeJS.LTS-8.14.0-16B7AE13121E4F0AAF6E23515E625129	OPEN	2024-03-16T04:22:52Z
144781	Add version: OpenJS.NodeJS.LTS version 8.14.1	coolplaylinbot:OpenJS.NodeJS.LTS-8.14.1-93242DF78C124B709D592DCD8163647A	OPEN	2024-03-16T04:22:49Z
144780	Add version: OpenJS.NodeJS.LTS version 8.15.0	coolplaylinbot:OpenJS.NodeJS.LTS-8.15.0-4C0B640B6DE04AFDA946384C52BECF9D	OPEN	2024-03-16T04:22:47Z
144779	Add version: OpenJS.NodeJS.LTS version 8.15.1	coolplaylinbot:OpenJS.NodeJS.LTS-8.15.1-413D3629F5664870813AD9C48BBEE964	OPEN	2024-03-16T04:22:44Z
144778	Add version: OpenJS.NodeJS.LTS version 8.16.0	coolplaylinbot:OpenJS.NodeJS.LTS-8.16.0-3342715629AA4B93BA02E1ABB43B0EDF	OPEN	2024-03-16T04:22:41Z
144777	Add version: OpenJS.NodeJS.LTS version 8.16.1	coolplaylinbot:OpenJS.NodeJS.LTS-8.16.1-38A1102BB9B842A2AB87382975F98DD8	OPEN	2024-03-16T04:22:38Z
144776	Add version: OpenJS.NodeJS.LTS version 8.16.2	coolplaylinbot:OpenJS.NodeJS.LTS-8.16.2-8A20EB7D95454944B9B71403C3E44350	OPEN	2024-03-16T04:22:35Z
144775	Add version: OpenJS.NodeJS.LTS version 8.17.0	coolplaylinbot:OpenJS.NodeJS.LTS-8.17.0-0C55AB7B939C4C16877D2AD21F686B61	OPEN	2024-03-16T04:22:32Z
144774	Add version: OpenJS.NodeJS.LTS version 10.13.0	coolplaylinbot:OpenJS.NodeJS.LTS-10.13.0-B577FB9150814DDB8728060FD40D804B	OPEN	2024-03-16T04:22:30Z
144773	Add version: OpenJS.NodeJS.LTS version 10.14.0	coolplaylinbot:OpenJS.NodeJS.LTS-10.14.0-318227AC580440D193EA7E714856D0C4	OPEN	2024-03-16T04:22:27Z
144772	Add version: OpenJS.NodeJS.LTS version 10.14.1	coolplaylinbot:OpenJS.NodeJS.LTS-10.14.1-D1E1D90961FD4D4DA5360786DE9AFAC1	OPEN	2024-03-16T04:22:24Z
144771	Add version: OpenJS.NodeJS.LTS version 10.14.2	coolplaylinbot:OpenJS.NodeJS.LTS-10.14.2-4B1D6F44143B467E9BF8DC43981BEA11	OPEN	2024-03-16T04:22:21Z
144770	Add version: OpenJS.NodeJS.LTS version 10.15.0	coolplaylinbot:OpenJS.NodeJS.LTS-10.15.0-2FC90DEC455C4AA6A9265D80261A32BA	OPEN	2024-03-16T04:22:18Z
144769	Add version: OpenJS.NodeJS.LTS version 10.15.1	coolplaylinbot:OpenJS.NodeJS.LTS-10.15.1-7C4442E19E0248F89FBAFAF6D8D9A420	OPEN	2024-03-16T04:22:15Z
144768	Add version: OpenJS.NodeJS.LTS version 10.15.2	coolplaylinbot:OpenJS.NodeJS.LTS-10.15.2-9A3FAA0A2A4C4151A23CF9D953E7B68C	OPEN	2024-03-16T04:22:12Z
144764	Add version: OpenJS.NodeJS.LTS version 10.16.2	coolplaylinbot:OpenJS.NodeJS.LTS-10.16.2-BF5AD5B9B1F74BAEB8125CEDCB5E332F	OPEN	2024-03-16T04:22:00Z
144763	Add version: OpenJS.NodeJS.LTS version 10.16.3	coolplaylinbot:OpenJS.NodeJS.LTS-10.16.3-D00FF5DFC46247D48E91D5D2D2C324C5	OPEN	2024-03-16T04:21:57Z
144762	Add version: OpenJS.NodeJS.LTS version 10.17.0	coolplaylinbot:OpenJS.NodeJS.LTS-10.17.0-2018D719E5054D9C8969CCE61868FCFD	OPEN	2024-03-16T04:21:52Z
144761	Add version: OpenJS.NodeJS.LTS version 10.18.0	coolplaylinbot:OpenJS.NodeJS.LTS-10.18.0-2799C78B4293414FAAFD50698E3AABDD	OPEN	2024-03-16T04:21:48Z
144760	Add version: OpenJS.NodeJS.LTS version 10.18.1	coolplaylinbot:OpenJS.NodeJS.LTS-10.18.1-1110501771684C5A86E44CA4058B6AF7	OPEN	2024-03-16T04:21:45Z
144759	Add version: OpenJS.NodeJS.LTS version 10.19.0	coolplaylinbot:OpenJS.NodeJS.LTS-10.19.0-9B1C22350C4E49FCAC55339C5775208F	OPEN	2024-03-16T04:21:42Z
144758	Add version: OpenJS.NodeJS.LTS version 10.20.0	coolplaylinbot:OpenJS.NodeJS.LTS-10.20.0-54C8792DD2EF4301B0682D0B1D085C4D	OPEN	2024-03-16T04:21:39Z
144757	Add version: OpenJS.NodeJS.LTS version 10.20.1	coolplaylinbot:OpenJS.NodeJS.LTS-10.20.1-59E055C892BC4F6798F38424A04BEA86	OPEN	2024-03-16T04:21:36Z
144756	Add version: OpenJS.NodeJS.LTS version 10.21.0	coolplaylinbot:OpenJS.NodeJS.LTS-10.21.0-878DBBD58BAB478B87E693A90E1BAE81	OPEN	2024-03-16T04:21:34Z
144755	Add version: OpenJS.NodeJS.LTS version 10.22.0	coolplaylinbot:OpenJS.NodeJS.LTS-10.22.0-388CB14346DC4FF1B79294C8385AC9E0	OPEN	2024-03-16T04:21:31Z
144754	Add version: OpenJS.NodeJS.LTS version 10.22.1	coolplaylinbot:OpenJS.NodeJS.LTS-10.22.1-9B4642FB423542B5B11CCF5B66DB8960	OPEN	2024-03-16T04:21:28Z
144753	Add version: OpenJS.NodeJS.LTS version 10.23.0	coolplaylinbot:OpenJS.NodeJS.LTS-10.23.0-471D502B871E4D93A2F83CBD9C910348	OPEN	2024-03-16T04:21:25Z
144752	Add version: OpenJS.NodeJS.LTS version 10.23.1	coolplaylinbot:OpenJS.NodeJS.LTS-10.23.1-17BEF616C4EE49A18B1A5BCAF8C3CC2D	OPEN	2024-03-16T04:21:22Z
144751	Add version: OpenJS.NodeJS.LTS version 12.13.0	coolplaylinbot:OpenJS.NodeJS.LTS-12.13.0-7C9BEE419A2C485E9AE111554FBFFB18	OPEN	2024-03-16T04:21:17Z
144750	Add version: OpenJS.NodeJS.LTS version 12.13.1	coolplaylinbot:OpenJS.NodeJS.LTS-12.13.1-E393E9F097A04A9D871AD8E835C2BEF4	OPEN	2024-03-16T04:21:14Z
144749	Add version: OpenJS.NodeJS.LTS version 12.14.0	coolplaylinbot:OpenJS.NodeJS.LTS-12.14.0-0048748EACF947659418F84852801552	OPEN	2024-03-16T04:21:11Z
144748	Add version: OpenJS.NodeJS.LTS version 12.14.1	coolplaylinbot:OpenJS.NodeJS.LTS-12.14.1-9A161C0358A141CAA6F20996FD2A363A	OPEN	2024-03-16T04:21:07Z
144747	Add version: OpenJS.NodeJS.LTS version 12.15.0	coolplaylinbot:OpenJS.NodeJS.LTS-12.15.0-FF22CFEE247446C9A9BACA2D23EDB7CF	OPEN	2024-03-16T04:21:04Z
144746	Add version: OpenJS.NodeJS.LTS version 12.16.0	coolplaylinbot:OpenJS.NodeJS.LTS-12.16.0-1CDCFC75F6C9480FB9298D79C67E1841	OPEN	2024-03-16T04:21:01Z
144745	Add version: OpenJS.NodeJS.LTS version 12.16.1	coolplaylinbot:OpenJS.NodeJS.LTS-12.16.1-F775D376635B4FF6AAA467E4DD3AF490	OPEN	2024-03-16T04:20:58Z
144744	Add version: OpenJS.NodeJS.LTS version 12.16.2	coolplaylinbot:OpenJS.NodeJS.LTS-12.16.2-226142305EEE4F7D83EDF6A2233BC84D	OPEN	2024-03-16T04:20:56Z
144743	Add version: OpenJS.NodeJS.LTS version 12.16.3	coolplaylinbot:OpenJS.NodeJS.LTS-12.16.3-1DC1B401729D447582C4E57CB7E4BA91	OPEN	2024-03-16T04:20:53Z
144742	Add version: OpenJS.NodeJS.LTS version 12.17.0	coolplaylinbot:OpenJS.NodeJS.LTS-12.17.0-DA72A4D3C6064EC98841CA2BC74005F3	OPEN	2024-03-16T04:20:50Z
144741	Add version: OpenJS.NodeJS.LTS version 12.18.0	coolplaylinbot:OpenJS.NodeJS.LTS-12.18.0-D573289680194810BBE80B666684DF3D	OPEN	2024-03-16T04:20:47Z
144740	Add version: OpenJS.NodeJS.LTS version 12.18.1	coolplaylinbot:OpenJS.NodeJS.LTS-12.18.1-83C83860CAE140369BF448C7C3491304	OPEN	2024-03-16T04:20:43Z
144739	Add version: OpenJS.NodeJS.LTS version 12.18.2	coolplaylinbot:OpenJS.NodeJS.LTS-12.18.2-C8D0FBC9C179446DBC631483A3ACA943	OPEN	2024-03-16T04:20:40Z
144738	Add version: OpenJS.NodeJS.LTS version 12.18.3	coolplaylinbot:OpenJS.NodeJS.LTS-12.18.3-9A166B645B904FD0A7AA0FFD968C29ED	OPEN	2024-03-16T04:20:37Z
144737	Add version: OpenJS.NodeJS.LTS version 12.19.1	coolplaylinbot:OpenJS.NodeJS.LTS-12.19.1-018376F1576B45C996C4D658CB37F039	OPEN	2024-03-16T04:20:33Z
144736	Add version: OpenJS.NodeJS.LTS version 12.20.0	coolplaylinbot:OpenJS.NodeJS.LTS-12.20.0-AB0F37667EAC4AAB8620121765942173	OPEN	2024-03-16T04:20:30Z
144735	Add version: OpenJS.NodeJS.LTS version 12.20.1	coolplaylinbot:OpenJS.NodeJS.LTS-12.20.1-E646329C08CE4377AE55578B24C9D42F	OPEN	2024-03-16T04:20:27Z
144734	Add version: OpenJS.NodeJS.LTS version 12.22.2	coolplaylinbot:OpenJS.NodeJS.LTS-12.22.2-E67EA34678E548DFBD9E5A4925D5CA6F	OPEN	2024-03-16T04:20:22Z
144733	Add version: OpenJS.NodeJS.LTS version 12.22.3	coolplaylinbot:OpenJS.NodeJS.LTS-12.22.3-017B482770764F8E8E32EFF9C71DEFDB	OPEN	2024-03-16T04:20:17Z
144732	Add version: OpenJS.NodeJS.LTS version 12.22.4	coolplaylinbot:OpenJS.NodeJS.LTS-12.22.4-204FFA4AED8249698C4087309E2FC2A4	OPEN	2024-03-16T04:20:14Z
144731	Add version: OpenJS.NodeJS.LTS version 12.22.5	coolplaylinbot:OpenJS.NodeJS.LTS-12.22.5-ECABDA12BF0C4D61A11090FF111B67C7	OPEN	2024-03-16T04:20:12Z
144730	Add version: OpenJS.NodeJS.LTS version 12.22.6	coolplaylinbot:OpenJS.NodeJS.LTS-12.22.6-A0EC3B6BBB87463E8164204FF13BFE24	OPEN	2024-03-16T04:20:09Z
144729	Add version: OpenJS.NodeJS.LTS version 12.22.7	coolplaylinbot:OpenJS.NodeJS.LTS-12.22.7-9349334293334E36B7AB4DEA6CE5C69D	OPEN	2024-03-16T04:20:06Z
144727	Add version: OpenJS.NodeJS.LTS version 12.22.11	coolplaylinbot:OpenJS.NodeJS.LTS-12.22.11-95DD302EBFD0403AAFCC806D5E373971	OPEN	2024-03-16T04:19:59Z
144726	Add version: OpenJS.NodeJS.LTS version 14.17.2	coolplaylinbot:OpenJS.NodeJS.LTS-14.17.2-DEC02C7CF695473B857BF188C9D29875	OPEN	2024-03-16T04:19:50Z
144725	Add version: OpenJS.NodeJS.LTS version 14.19.1	coolplaylinbot:OpenJS.NodeJS.LTS-14.19.1-1997F1F4F751410EA013DFE8FD553176	OPEN	2024-03-16T04:19:42Z
144724	Add version: OpenJS.NodeJS.LTS version 14.20.0	coolplaylinbot:OpenJS.NodeJS.LTS-14.20.0-A52C31896F22479BBE7DC1243B829E34	OPEN	2024-03-16T04:19:38Z
144723	Add version: OpenJS.NodeJS.LTS version 14.20.1	coolplaylinbot:OpenJS.NodeJS.LTS-14.20.1-207F03DB54BF4F60B401EB8F531420C9	OPEN	2024-03-16T04:19:35Z
144722	Add version: OpenJS.NodeJS.LTS version 16.20.1	coolplaylinbot:OpenJS.NodeJS.LTS-16.20.1-E045DC1E748A49EEA2FCB453CBEE62F1	OPEN	2024-03-16T04:19:21Z
144721	Add version: OpenJS.NodeJS.LTS version 16.20.2	coolplaylinbot:OpenJS.NodeJS.LTS-16.20.2-5B65640CA85046748FA617E93876DB06	OPEN	2024-03-16T04:19:18Z
144720	Add version: OpenJS.NodeJS.LTS version 18.18.1	coolplaylinbot:OpenJS.NodeJS.LTS-18.18.1-0EA01200AF824895A6B7D7438D971DEB	OPEN	2024-03-16T04:19:09Z
144719	Add version: OpenJS.NodeJS.LTS version 18.18.2	coolplaylinbot:OpenJS.NodeJS.LTS-18.18.2-3445F8BC469F470088C7A8BD80A9216E	OPEN	2024-03-16T04:19:06Z
144718	Add version: OpenJS.NodeJS.LTS version 18.19.1	coolplaylinbot:OpenJS.NodeJS.LTS-18.19.1-3B26849FC8DF4A709A7A2A2F2FDA5DFB	OPEN	2024-03-16T04:19:01Z
144312	Autodesk.Meshmixer version 3.5	Rotzbua:Autodesk.Meshmixer-3.5-2a7131a1-7997-440b-b363-167d6dfe4c56	OPEN	2024-03-14T15:12:27Z
144305	New version: martinrotter.RSSGuard version 4.6.4	Exorcism0666:martinrotter.RSSGuard-4.6.4-8A80CBF7310A41F8B4829E29B5B98817	OPEN	2024-03-14T12:42:56Z
144264	New version: Daytonaio.Daytona version 0.3.1	harkiratsm:update-daytona	OPEN	2024-03-14T05:55:58Z
144081	New package: Jigsaw.OutlineClient version 1.12.1	rakleed:Jigsaw.OutlineClient-1.12.1-99b13a86-76be-4bc2-ada7-91cd24084fc8	OPEN	2024-03-12T22:36:50Z
143402	New package: SaleaeInc.Logic version 2.4.14	Exorcism0666:SaleaeInc.Logic-2.4.14-3e70270c-1b48-4491-b2ae-3c10b3e31d0d	OPEN	2024-03-09T15:03:25Z
143072	New package: Saleae.Logic2 version 2.4.14	MatthewA1:Saleae.Logic2-2.4.14-20a6f5ac-cf9d-4cd8-8cd4-7df219deb5d0	OPEN	2024-03-08T23:39:10Z
142684	New version: RustDesk.RustDesk version 1.2.3-1	SpecterShell:RustDesk.RustDesk-1.2.3-1-79C74FD6	OPEN	2024-03-06T05:51:07Z
142091	New package: Bithack.Principia version 2024.02.29	griffi-gh:Bithack.Principia-2024.02.29-380B1B4A9E624D2B99CA7A1C5A6E937A	OPEN	2024-03-04T18:56:19Z
142008	New version: OpslyCloud.opsly-cli version v0.0.1-alpha.18	Opsly:release-v0.0.1-alpha.18	OPEN	2024-03-04T09:08:11Z
141815	New package: Microsoft.XboxApp version 1.0.1.30	rakleed:Microsoft.XboxApp-1.0.1.30-5c7b2f13-9e3c-4004-9c55-5a7c02702309	OPEN	2024-03-02T23:48:35Z
141787	New package: NVIDIACorporation.NVIDIAapp version 1.0.14.0	Barradel:NVIDIACorporation.NVIDIAapp-1.0.14.0-8d56a3e1-6c5c-4083-ac50-56a0edd80fa6	OPEN	2024-03-02T17:02:10Z
141648	Automatic update of Getscreenme.Agent from 2.15.8 to 2.18.1	wingetbot:AutomaticUpdate_f9e15711-8cff-4f9b-b7d6-8e18a1470bd4	OPEN	2024-03-01T21:47:53Z
141643	Automatic update of Getscreenme.Agent from 2.15.7 to 2.18.1	wingetbot:AutomaticUpdate_af8c7c43-8922-4a82-965a-fd0699dd89d0	OPEN	2024-03-01T21:37:55Z
141520	New Package: Soundux.Soundux version 0.2.7	og-mrk:update-manifest/Soundux.Soundux	DRAFT	2024-02-29T21:00:07Z
141474	New version: charmbracelet.confettysh 1.1.1	charmbracelet:confettysh-1.1.1	OPEN	2024-02-29T15:34:01Z
141230	Automatic update of NAVER.Vaccine from 2021.5.7.1 to 2023.6.12.2	wingetbot:AutomaticUpdate_415ea5e7-83af-48b8-badf-d01279dbc3b8	OPEN	2024-02-27T23:56:39Z
141183	New Version: VMware.WorkstationPro version 17.5.1.23298084	virtualex-itv:VMware.WorkstationPro-17.5.1	OPEN	2024-02-27T19:34:52Z
141182	New Version: VMware.WorkstationPlayer version 17.5.1.23298084	virtualex-itv:VMware.WorkstationPlayer-17.5.1	OPEN	2024-02-27T19:34:37Z
141152	New version: Elgato.WaveLink version 1.9.3.1962	OfficialEsco:Elgato.WaveLink-1.9.3.1962-2AACF575	OPEN	2024-02-27T18:15:40Z
140904	New package: nkdAgility.AzureDevOpsExportActionableAgile version 0.1.1	MrHinsh:nkdAgility.AzureDevOpsExportActionableAgile-0.1.1-aa1e77f5-8bc4-49ab-8e24-cd2735555b59	OPEN	2024-02-25T14:22:52Z
140875	New package: GIGABYTE.Sidekick version 24.01.19.01	SpecterShell:GIGABYTE.Sidekick-24.01.03.01-A183BF29	OPEN	2024-02-25T00:01:17Z
140705	New package: NVIDIA.app version 10.0.0.499	Exorcism0666:NVIDIA.app-10.0.0.499-14893F9044AF4A18B71AD1BE24117300	OPEN	2024-02-23T07:21:23Z
140621	Automatic update of AprelTech.SilentInstallBuilder.Beta from 6.2.4.0 to 6.3.0.0	wingetbot:AutomaticUpdate_10f48768-d783-4a74-bbd6-42057124b262	OPEN	2024-02-22T20:07:44Z
140551	New package: AndrewLeech.WSLUSB version 5.3.0	Exorcism0666:AndrewLeech.WSLUSB-5.3.0-081ed0b2-6c9a-4d1c-980b-f0d1769cd860	OPEN	2024-02-22T15:16:44Z
140451	Automatic update of SystweakSoftware.AdvancedSystemOptimizer from 3.81.8181.234 to 3.81.8181.238	wingetbot:AutomaticUpdate_ee67fbd2-ed87-4b59-9948-153270582ae6	OPEN	2024-02-22T00:13:34Z
140335	New package: n4af.TR4W version 4.131.0	Exorcism0666:n4af.TR4W-4.131.0-F3F63D74F9D142869CCEF4D9D00D542C	OPEN	2024-02-21T07:17:41Z
139966	New package: Exiv2.Exiv2 version 0.28.2	Exorcism0666:Exiv2.Exiv2-0.28.2-31871267-8f4b-44bf-9fe8-fe39214a0d19	OPEN	2024-02-18T14:15:06Z
139679	Automatic update of Milvus.AgenteMilvusCore 103.0.0.0	wingetbot:AutomaticUpdate_a122e067-dad6-4338-aad1-efe588cbe458	OPEN	2024-02-16T23:01:52Z
139550	Automatic update of AVS.InstallPackComplete from 5.6.1.184 to 5.6.2.186	wingetbot:AutomaticUpdate_f4fdd036-3788-4577-9808-55dd1f24ccbf	OPEN	2024-02-16T20:35:41Z
139535	Automatic update of Kuwo.KuwoMusic from 9.3.2.0 to 9.3.4.0	wingetbot:AutomaticUpdate_8bdc625a-daa4-4496-bbf6-ec0926571ef0	OPEN	2024-02-16T20:21:25Z
138233	New version: AirDroid.AirDroid version 3.7.2.1	mbilal234:AirDroid.AirDroid-3.7.2.1-E456E8DF	OPEN	2024-02-07T07:39:01Z
138131	xiaoyifang.GoldenDict-ng version 24.01.22	deanapearce:xiaoyifang.GoldenDict-ng-24.01.22-3acef5a8-d8d7-4faf-ad23-9a652d24489d	OPEN	2024-02-06T04:49:00Z
137829	SonyEricsson.ThemesCreator version 4.16.2.6	erikiorai:SonyEricsson.ThemesCreator-4.16.2.6-ab70df62-e0fa-4b4a-8eeb-8a7c01f8b67b	OPEN	2024-02-04T16:42:44Z
137821	New package: BaileyBrown.cppcryptfs version 1.4.4.2	Exorcism0666:BaileyBrown.cppcryptfs-1.4.4.2-fee01bfe-43bc-4024-b8f0-63a5b6e70560	OPEN	2024-02-04T12:26:02Z
137805	New package: TCHelicon.GoXLRApp version 1.3.3.130	Exorcism0666:TCHelicon.GoXLRApp-1.3.3.130-AE74066C18414072AAD825187F5F4F69	OPEN	2024-02-04T06:46:41Z
137800	New package: Rem0o.FanControl version 180	Exorcism0666:Rem0o.FanControl-180-FBC9FED90D854C28931A8A8E5DEB7790	OPEN	2024-02-04T06:30:17Z
137718	New version: Julialang.Julia version 1.13.0.0	SpecterShell:Julialang.Julia-1.13.0.0-Newversion	DRAFT	2024-02-03T06:12:14Z
137212	Automatic update of Getscreenme.Agent from 2.14.8 to 2.16.2	wingetbot:AutomaticUpdate_9cca0a98-ab08-4783-8e3d-194a22bfe565	OPEN	2024-01-30T20:52:21Z
136931	New package: Microsoft.VCRedist.2015+.arm64 version 14.38.33130.0	CoolPlayLin:Microsoft.VCRedist.2015+.arm64-14.38.33130.0-2375178EB9754EAE94CDDF397ABAB385	OPEN	2024-01-29T03:39:19Z
136827	New version: GNU.Nano version 7.2	CoolPlayLin:GNU.Nano-7.2-6D45E0D48636A67974AFC0E8197798119C1D83E3	OPEN	2024-01-28T04:05:13Z
136817	New version: Kensington.KensingtonWorks version 3.1.8	buzztaiki:Kensington.KensingtonWorks-3.1.8-a100d909-33ef-43e5-aa78-59a6848ca9d6	OPEN	2024-01-27T23:14:38Z
136781	NetDocuments.ndMail version 1.12.0.448	EmmaTheEmu:NetDocuments.ndMail-1.12.0.448-d4d30328-227b-47be-9fe6-7859fa7c3479	OPEN	2024-01-27T14:14:24Z
136654	Microsoft.Sysinternals.Sigcheck version 2.90	varGeneric:Microsoft.Sysinternals.Sigcheck-2.90-c456c9b5-3c81-4c21-a22d-76a940de075d	OPEN	2024-01-26T14:17:55Z
135757	New package: Certiport,aPearsonVUEBusiness.CertiportCompass version 19.0.2.1270	ldriskell:Certiport,aPearsonVUEBusiness.CertiportCompass-19.0.2.1270-7b08cf3b-c8fd-46f2-9625-6412faa08c87	DRAFT	2024-01-22T21:19:10Z
135678	New package: CPUID.CPU-Z.ARM64 version 1.01	Exorcism0666:CPUID.CPU-Z.ARM64-1.01-e00e14b2-58ce-459c-96e6-4dddb16316e6	OPEN	2024-01-21T20:58:08Z
135640	New package: iPerf.iPerf3 version 3.1.3	solomoncyj:iPerf.iPerf3-3.1.3-56c324ff-49ef-43cc-9071-4b5d8e2de28a	DRAFT	2024-01-21T00:31:54Z
135254	New version: Microsoft.WindowsADK version 10.1.25398.1	rasa:Microsoft.WindowsADK-10.1.25398.1-729BCD681042C1318B9418EE13C7EA58940E65DC	OPEN	2024-01-17T23:34:16Z
135162	New package: Ether.Etherpad-Lite version 1.9.6	Exorcism0666:Ether.Etherpad-Lite-1.9.6-fc58d854-3a86-4597-b24c-3a3c399a2a0e	OPEN	2024-01-17T13:05:28Z
134262	New version: Cloudflare.cloudflared version 2024.1.2	vedantmgoyal9:Cloudflare.cloudflared-2024.1.2-20240115143250	DRAFT	2024-01-15T14:32:54Z
134173	New version: AppbyTroye.KoodoReader version 1.6.2	vedantmgoyal9:AppbyTroye.KoodoReader-1.6.2-20240115135637	DRAFT	2024-01-15T13:56:40Z
134172	Add version: Apifox.Apifox version 2.4.12	vedantmgoyal9:Apifox.Apifox-2.4.12-20240115135627	DRAFT	2024-01-15T13:56:30Z
133387	New package: KhronosGroup.VulkanSDK version 1.3.268.0	sandercox:khronosgroup.vulkansdk-1.3.268.0	OPEN	2024-01-09T08:07:29Z
132585	Add Azure Artifacts NuGet Credential Provider	jeffreyrivor:master	OPEN	2024-01-03T22:35:45Z
131710	New package: TruffleSecurity.TruffleHog version 3.63.7	BiosPlus:TruffleSecurity.TruffleHog-3.63.7-DC41B8DF52ECAD40D0E85E9344103F13F09CA086	OPEN	2023-12-23T09:41:10Z
131556	PR Watcher and Manual Validation update.	stephengillie:Tools-update-12-20	OPEN	2023-12-21T18:04:44Z
130839	Flutter 3.16.4	albertopasqualetto:flutter3.16.4	OPEN	2023-12-18T09:32:32Z
129171	trzsz.lrzsz	lonnywong:trzsz.lrzsz-0.12.21rc-70b78f0b-fcf2-4dfa-8dff-9958449fb086	OPEN	2023-12-04T16:16:57Z
126999	New version: Microsoft.VCRedist.2022.arm64 version 14.38.33130.0	imfelixlaw:Microsoft.VCRedist.2022.arm64-14.38.33130.0-D2E8825C8B9C5A60AEA40F91A7CEB9C445017D5A	OPEN	2023-11-16T16:55:29Z
124475	New version: Genymobile.scrcpy version 2.2	coolplaylinbot:Genymobile.scrcpy-2.2-FE093712BEEF5F0BA303FCA646799116D0B2D212	OPEN	2023-11-01T18:13:36Z
123118	New package: Apache.maven version 3.9.5	echocat:Apache/Maven/3.9.5	OPEN	2023-10-19T09:02:08Z
118484	New version: DSGT-DLP.dlp-cli 0.0.10	DSGT-DLP:master	DRAFT	2023-08-30T16:33:55Z
117767	CrystalIDEASoftware.MacsFanControl version 1.5.15	stek29:CrystalIDEASoftware.MacsFanControl-1.5.15-caaf53fc-b14f-4c00-aaed-afe0f0e19fa2	OPEN	2023-08-23T02:31:41Z
117597	New package: ISC.BIND version 9.16.43	honahuku:master	OPEN	2023-08-21T15:02:34Z
116546	New package COAA.PlanePlotter	blackzafiqz:planeplotter	OPEN	2023-08-13T00:23:02Z
115283	New version: SAGAUserGroupAssociation.SAGAGIS version 9.1.1	xyzallan:SAGAUserGroupAssociation.SAGAGIS-9.1.1-ABD2CA8DFAE135	DRAFT	2023-08-04T10:36:19Z
115062	New package: FreakinSoftMania.WinUEFI version 1.9.3	Minionguyjpro:FreakinSoftMania.WinUEFI-1.9.3-345e5f16-92b2-4984-914a-9fe717a14acb	OPEN	2023-08-03T13:43:28Z
114001	Add the Devicetree compiler (`dtc`)	carlescufi:add-dtc	OPEN	2023-08-01T15:08:30Z
113306	Autogenerated/apple.boot camp drivers/b5211d2d b630 4028 b631 1719cad5afa9	upintheairsheep:autogenerated/Apple.BootCampDrivers/b5211d2d-b630-4028-b631-1719cad5afa9	OPEN	2023-07-27T09:04:45Z
113300	Samsung.play av station 4.1.20.47 2ec73e50 ce84 4345 8c2f 7fb49855d65d	upintheairsheep:Samsung.PlayAVStation-4.1.20.47-2ec73e50-ce84-4345-8c2f-7fb49855d65d	OPEN	2023-07-27T08:36:23Z
113297	New package: Lenovo.ThinkPadUtilityforDOS version 4.44.7IU601US	upintheairsheep:Lenovo.ThinkPadUtilityforDOS-4.44.7IU601US-50b89894-1dcd-4bc3-8a38-b4b06773fb5e	OPEN	2023-07-27T08:31:14Z
113067	Dell.command monitor 10.9.1 4 a10 b4 de567824	dellclientopensource:Dell.CommandMonitor-10.9.1-4A10B4DE567824	OPEN	2023-07-24T15:27:01Z
112577	New package: tawk.to version 2.2.0	fontajos:tawk.to-2.2.0-506d6e3f-475d-455a-b963-8ff4ceb2ee6a	OPEN	2023-07-19T13:53:23Z
112223	New package: Stern.Stern version 1.25.0 (#112222)	BoSoeborgPetersen:Stern.Stern-1.25.0	OPEN	2023-07-16T07:20:15Z
112205	New package: Qwerty-133.spcache v0.1.0	Qwerty-133:spcache-v0.1.0	OPEN	2023-07-15T19:14:58Z
112017	New package: Samsung.PlayTouchLauncher version 1.2.0.32	upintheairsheep:Samsung.PlayTouchLauncher-1.2.0.32-62d64b4e-867e-4b56-a12d-8e6c1ee31a4e	OPEN	2023-07-13T04:12:31Z
111982	New package: Samsung.UpdatePlus version 1.3.0.12	upintheairsheep:Samsung.UpdatePlus-1.3.0.12-50fc94b0-8ca7-40fe-bbf8-b0fd75de562f	OPEN	2023-07-12T22:44:06Z
111978	New package: Samsung.RecoverySolution version 1.0.3.21	upintheairsheep:Samsung.RecoverySolution-1.0.3.21-6868633b-ee05-45e5-a98a-96c3038e5e2e	OPEN	2023-07-12T22:34:14Z
111974	New package: Samsung.EasyNetworkManager version 3.0.1.7	upintheairsheep:Samsung.EasyNetworkManager-3.0.1.7-1bcfc17f-b15f-45aa-87d0-fa902dc5cb2f	OPEN	2023-07-12T22:24:34Z
111894	New package: Lenovo.DiagnosticsTool version 4.47.1.4	upintheairsheep:Lenovo.DiagnosticsTool-4.47.1.4-2f0669ce-bd9f-48d0-8b49-58f8bbb17258	OPEN	2023-07-12T04:24:13Z
111884	New package: TekkaGB.FileDaddy version 1.5.6	upintheairsheep:TekkaGB.FileDaddy-1.5.6-e339031b-539d-4df7-b64c-89e9e36d928f	OPEN	2023-07-12T02:52:12Z
111879	New package: Nox.NoxPlayer version 7.0.5.8	SpecterShell:Nox.NoxPlayer-7.0.5.8-Newpackage	OPEN	2023-07-12T01:22:07Z
111867	Apple.FaceTimeCameraUpdate version 1.0	upintheairsheep:autogenerated/Apple.FaceTimeCamerUpdate/bdc6b68f-5108-4459-a680-dca5cac9169f	OPEN	2023-07-11T22:24:48Z
111864	Apple.BcUpdate version 1.1	upintheairsheep:autogenerated/Apple.BcUpdate/17e9f502-7199-4799-82d7-f529e66bab4c	OPEN	2023-07-11T22:18:08Z
110767	New package: PlantUML.PlantUML version v1.2023.9	seppeon:NewPackage-SupportPlantUml	OPEN	2023-06-27T14:03:32Z
110618	New package: Nvidia.GeForceGameReadyDriver	WinkelCode:master	DRAFT	2023-06-24T22:23:30Z
110299	mercedesclk320.SamsungRemote version 1.0	upintheairsheep:autogenerated/mercedesclk320.SamsungRemote/4b5c0f15-a2a8-4bf5-82ad-ae10f59d0184	OPEN	2023-06-20T22:35:20Z
109711	Nadeo.Trackmania2020Server version latest	superusercode:autogenerated/Nadeo.Trackmania2020Server/47795429-4068-4dcd-b6bb-95551c041ac7	OPEN	2023-06-13T20:02:14Z
109106	Macabacus.Macabacus version 9.5.4	khaffner:autogenerated/Macabacus.Macabacus/bdf259da-5970-401d-9c1b-13151d6f0c6e	OPEN	2023-06-07T06:24:16Z
108025	AxisCommunications.MediaControl version 7.5.41	upintheairsheep:autogenerated/AxisCommunications.MediaControl/1791f579-f0f9-43d2-8aa8-bd34e608993d	OPEN	2023-05-24T21:57:19Z
107492	GlobalMarineNet.9555UpgradeTool version 1.0	upintheairsheep:autogenerated/GlobalMarineNet.9555UpgradeTool/d9b1d086-d00f-43ca-a93d-d77eba1f2b38	OPEN	2023-05-20T04:19:41Z
107211	NanoBoyAdvance.NanoBoyAdvance version 1.7.1	superusercode:autogenerated/NanoBoyAdvance.NanoBoyAdvance/46eace2e-83e8-449c-94af-f47d078eafd0	OPEN	2023-05-18T05:57:58Z
107121	Add: Fluidsynth 2.3.2	superusercode:fluidsynth	OPEN	2023-05-17T19:58:15Z
107110	vdrift.vdrift version 2014-10-20	superusercode:autogenerated/vdrift.vdrift/0bc28bc9-b73f-40dc-8281-60544a4ccdc3	OPEN	2023-05-17T18:22:52Z
106718	Microsoft.VisualStudioCode: enable "open with code" context menu items by default	soredake:vscode_new_default_params	OPEN	2023-05-13T17:40:16Z
106696	Google.ProjectGameface version 0.3.30	upintheairsheep:autogenerated/Google.ProjectGameface/03a6a0a4-ec30-45db-9b9f-709938eb471a	OPEN	2023-05-12T23:03:43Z
106257	Samsung.EasySettingBox version 1.2.1	upintheairsheep:autogenerated/Samsung.EasySettingBox/56f0bd77-1467-4e5d-a81c-f01be287798e	OPEN	2023-05-09T02:36:44Z
106255	Autogenerated/forensic cloud.i ve/6d5b5f5e d616 468a a753 07e1f40ae5e3	upintheairsheep:autogenerated/ForensicCloud.iVe/6d5b5f5e-d616-468a-a753-07e1f40ae5e3	OPEN	2023-05-09T02:33:15Z
106252	Autogenerated/apple.i pod reset/171ca08b 8a09 4f71 a92f a50aa17b6779	upintheairsheep:autogenerated/Apple.iPodReset/171ca08b-8a09-4f71-a92f-a50aa17b6779	OPEN	2023-05-09T02:27:37Z
106249	Samsung.DataMigration version 2.0	upintheairsheep:autogenerated/Samsung.DataMigration/2b3783c3-4e6c-4c9e-bc84-87f2b910a324	OPEN	2023-05-09T02:22:32Z
106157	Google.AndroidM5Emulator version m5-rc14	upintheairsheep:autogenerated/Google.AndroidM5Emulator/809f5be4-1a6d-47a7-a274-d5fe7279f2c0	OPEN	2023-05-07T19:19:21Z
106155	Google.AndroidM3Emulator version m3-rc20a	upintheairsheep:autogenerated/Google.AndroidM3Emulator/e1692b41-c083-4814-8e8a-ffb3c21f2c63	OPEN	2023-05-07T19:16:59Z
106133	lazygamereviews.KEmulator version 1.0.3	upintheairsheep:autogenerated/lazygamereviews.KEmulator/0e772505-c19f-4ec7-9c07-3bf40f5ef8a2	OPEN	2023-05-06T23:51:55Z
102953	Andrelouis.NokiaInternalTuneEdit version 1.0	upintheairsheep:autogenerated/Andrelouis.NokiaInternalTuneEdit/f4375585-9989-403b-8bdc-b1db94db557f	OPEN	2023-04-19T21:48:06Z
102951	Andrelouis.NokiaS30MidiSim version 1.0	upintheairsheep:autogenerated/Andrelouis.NokiaS30MidiSim/50bde995-6784-4da6-a4ae-520f858d5289	OPEN	2023-04-19T21:45:35Z
94818	New package: Google.Android.SDKPlatformTools version 33.0.3	sitiom:Google.Android.SDKPlatformTools-33.0.3-4E05E834C751B3	DRAFT	2023-01-27T15:58:27Z
94782	New package: maharmstone.Ntfs2btrfs version 20220812	sitiom:maharmstone.ntfs2btrfs-20220812-88405ACACCC61B	DRAFT	2023-01-27T08:46:21Z
94697	New package: LinusDierheimer.fastfetch version 1.9.1	sitiom:LinusDierheimer.fastfetch-1.9.1-1EA3C7CE758B90	DRAFT	2023-01-26T10:32:26Z
92317	[Zip][Portable] New package: Google.DartSDK version 2.18.6	SpecterShell:Google.DartSDK-2.18.6-9F09B51A1D224B	DRAFT	2022-12-27T04:54:40Z
15446	Microsoft.IISManagerRemoteAdministration version 1.2	Megasware128:autogenerated/Microsoft.IISManagerRemoteAdministration/b2919790-a68c-44a2-acef-4975d044b78a	OPEN	2021-06-01T13:15:04Z
